# vtk DataFile Version 3.0
vtk output
ASCII
DATASET STRUCTURED_GRID
DIMENSIONS 20 20 20
POINTS 8000 double
-1.5 -1.5 -1.5
-1.35 -1.5 -1.5
-1.2 -1.5 -1.5
-1.05 -1.5 -1.5
-0.9 -1.5 -1.5
-0.75 -1.5 -1.5
-0.6 -1.5 -1.5
-0.45 -1.5 -1.5
-0.3 -1.5 -1.5
-0.15 -1.5 -1.5
-1.66533e-16 -1.5 -1.5
0.15 -1.5 -1.5
0.3 -1.5 -1.5
0.45 -1.5 -1.5
0.6 -1.5 -1.5
0.75 -1.5 -1.5
0.9 -1.5 -1.5
1.05 -1.5 -1.5
1.2 -1.5 -1.5
1.35 -1.5 -1.5
-1.5 -1.35 -1.5
-1.35 -1.35 -1.5
-1.2 -1.35 -1.5
-1.05 -1.35 -1.5
-0.9 -1.35 -1.5
-0.75 -1.35 -1.5
-0.6 -1.35 -1.5
-0.45 -1.35 -1.5
-0.3 -1.35 -1.5
-0.15 -1.35 -1.5
-1.66533e-16 -1.35 -1.5
0.15 -1.35 -1.5
0.3 -1.35 -1.5
0.45 -1.35 -1.5
0.6 -1.35 -1.5
0.75 -1.35 -1.5
0.9 -1.35 -1.5
1.05 -1.35 -1.5
1.2 -1.35 -1.5
1.35 -1.35 -1.5
-1.5 -1.2 -1.5
-1.35 -1.2 -1.5
-1.2 -1.2 -1.5
-1.05 -1.2 -1.5
-0.9 -1.2 -1.5
-0.75 -1.2 -1.5
-0.6 -1.2 -1.5
-0.45 -1.2 -1.5
-0.3 -1.2 -1.5
-0.15 -1.2 -1.5
-1.66533e-16 -1.2 -1.5
0.15 -1.2 -1.5
0.3 -1.2 -1.5
0.45 -1.2 -1.5
0.6 -1.2 -1.5
0.75 -1.2 -1.5
0.9 -1.2 -1.5
1.05 -1.2 -1.5
1.2 -1.2 -1.5
1.35 -1.2 -1.5
-1.5 -1.05 -1.5
-1.35 -1.05 -1.5
-1.2 -1.05 -1.5
-1.05 -1.05 -1.5
-0.9 -1.05 -1.5
-0.75 -1.05 -1.5
-0.6 -1.05 -1.5
-0.45 -1.05 -1.5
-0.3 -1.05 -1.5
-0.15 -1.05 -1.5
-1.66533e-16 -1.05 -1.5
0.15 -1.05 -1.5
0.3 -1.05 -1.5
0.45 -1.05 -1.5
0.6 -1.05 -1.5
0.75 -1.05 -1.5
0.9 -1.05 -1.5
1.05 -1.05 -1.5
1.2 -1.05 -1.5
1.35 -1.05 -1.5
-1.5 -0.9 -1.5
-1.35 -0.9 -1.5
-1.2 -0.9 -1.5
-1.05 -0.9 -1.5
-0.9 -0.9 -1.5
-0.75 -0.9 -1.5
-0.6 -0.9 -1.5
-0.45 -0.9 -1.5
-0.3 -0.9 -1.5
-0.15 -0.9 -1.5
-1.66533e-16 -0.9 -1.5
0.15 -0.9 -1.5
0.3 -0.9 -1.5
0.45 -0.9 -1.5
0.6 -0.9 -1.5
0.75 -0.9 -1.5
0.9 -0.9 -1.5
1.05 -0.9 -1.5
1.2 -0.9 -1.5
1.35 -0.9 -1.5
-1.5 -0.75 -1.5
-1.35 -0.75 -1.5
-1.2 -0.75 -1.5
-1.05 -0.75 -1.5
-0.9 -0.75 -1.5
-0.75 -0.75 -1.5
-0.6 -0.75 -1.5
-0.45 -0.75 -1.5
-0.3 -0.75 -1.5
-0.15 -0.75 -1.5
-1.66533e-16 -0.75 -1.5
0.15 -0.75 -1.5
0.3 -0.75 -1.5
0.45 -0.75 -1.5
0.6 -0.75 -1.5
0.75 -0.75 -1.5
0.9 -0.75 -1.5
1.05 -0.75 -1.5
1.2 -0.75 -1.5
1.35 -0.75 -1.5
-1.5 -0.6 -1.5
-1.35 -0.6 -1.5
-1.2 -0.6 -1.5
-1.05 -0.6 -1.5
-0.9 -0.6 -1.5
-0.75 -0.6 -1.5
-0.6 -0.6 -1.5
-0.45 -0.6 -1.5
-0.3 -0.6 -1.5
-0.15 -0.6 -1.5
-1.66533e-16 -0.6 -1.5
0.15 -0.6 -1.5
0.3 -0.6 -1.5
0.45 -0.6 -1.5
0.6 -0.6 -1.5
0.75 -0.6 -1.5
0.9 -0.6 -1.5
1.05 -0.6 -1.5
1.2 -0.6 -1.5
1.35 -0.6 -1.5
-1.5 -0.45 -1.5
-1.35 -0.45 -1.5
-1.2 -0.45 -1.5
-1.05 -0.45 -1.5
-0.9 -0.45 -1.5
-0.75 -0.45 -1.5
-0.6 -0.45 -1.5
-0.45 -0.45 -1.5
-0.3 -0.45 -1.5
-0.15 -0.45 -1.5
-1.66533e-16 -0.45 -1.5
0.15 -0.45 -1.5
0.3 -0.45 -1.5
0.45 -0.45 -1.5
0.6 -0.45 -1.5
0.75 -0.45 -1.5
0.9 -0.45 -1.5
1.05 -0.45 -1.5
1.2 -0.45 -1.5
1.35 -0.45 -1.5
-1.5 -0.3 -1.5
-1.35 -0.3 -1.5
-1.2 -0.3 -1.5
-1.05 -0.3 -1.5
-0.9 -0.3 -1.5
-0.75 -0.3 -1.5
-0.6 -0.3 -1.5
-0.45 -0.3 -1.5
-0.3 -0.3 -1.5
-0.15 -0.3 -1.5
-1.66533e-16 -0.3 -1.5
0.15 -0.3 -1.5
0.3 -0.3 -1.5
0.45 -0.3 -1.5
0.6 -0.3 -1.5
0.75 -0.3 -1.5
0.9 -0.3 -1.5
1.05 -0.3 -1.5
1.2 -0.3 -1.5
1.35 -0.3 -1.5
-1.5 -0.15 -1.5
-1.35 -0.15 -1.5
-1.2 -0.15 -1.5
-1.05 -0.15 -1.5
-0.9 -0.15 -1.5
-0.75 -0.15 -1.5
-0.6 -0.15 -1.5
-0.45 -0.15 -1.5
-0.3 -0.15 -1.5
-0.15 -0.15 -1.5
-1.66533e-16 -0.15 -1.5
0.15 -0.15 -1.5
0.3 -0.15 -1.5
0.45 -0.15 -1.5
0.6 -0.15 -1.5
0.75 -0.15 -1.5
0.9 -0.15 -1.5
1.05 -0.15 -1.5
1.2 -0.15 -1.5
1.35 -0.15 -1.5
-1.5 -1.66533e-16 -1.5
-1.35 -1.66533e-16 -1.5
-1.2 -1.66533e-16 -1.5
-1.05 -1.66533e-16 -1.5
-0.9 -1.66533e-16 -1.5
-0.75 -1.66533e-16 -1.5
-0.6 -1.66533e-16 -1.5
-0.45 -1.66533e-16 -1.5
-0.3 -1.66533e-16 -1.5
-0.15 -1.66533e-16 -1.5
-1.66533e-16 -1.66533e-16 -1.5
0.15 -1.66533e-16 -1.5
0.3 -1.66533e-16 -1.5
0.45 -1.66533e-16 -1.5
0.6 -1.66533e-16 -1.5
0.75 -1.66533e-16 -1.5
0.9 -1.66533e-16 -1.5
1.05 -1.66533e-16 -1.5
1.2 -1.66533e-16 -1.5
1.35 -1.66533e-16 -1.5
-1.5 0.15 -1.5
-1.35 0.15 -1.5
-1.2 0.15 -1.5
-1.05 0.15 -1.5
-0.9 0.15 -1.5
-0.75 0.15 -1.5
-0.6 0.15 -1.5
-0.45 0.15 -1.5
-0.3 0.15 -1.5
-0.15 0.15 -1.5
-1.66533e-16 0.15 -1.5
0.15 0.15 -1.5
0.3 0.15 -1.5
0.45 0.15 -1.5
0.6 0.15 -1.5
0.75 0.15 -1.5
0.9 0.15 -1.5
1.05 0.15 -1.5
1.2 0.15 -1.5
1.35 0.15 -1.5
-1.5 0.3 -1.5
-1.35 0.3 -1.5
-1.2 0.3 -1.5
-1.05 0.3 -1.5
-0.9 0.3 -1.5
-0.75 0.3 -1.5
-0.6 0.3 -1.5
-0.45 0.3 -1.5
-0.3 0.3 -1.5
-0.15 0.3 -1.5
-1.66533e-16 0.3 -1.5
0.15 0.3 -1.5
0.3 0.3 -1.5
0.45 0.3 -1.5
0.6 0.3 -1.5
0.75 0.3 -1.5
0.9 0.3 -1.5
1.05 0.3 -1.5
1.2 0.3 -1.5
1.35 0.3 -1.5
-1.5 0.45 -1.5
-1.35 0.45 -1.5
-1.2 0.45 -1.5
-1.05 0.45 -1.5
-0.9 0.45 -1.5
-0.75 0.45 -1.5
-0.6 0.45 -1.5
-0.45 0.45 -1.5
-0.3 0.45 -1.5
-0.15 0.45 -1.5
-1.66533e-16 0.45 -1.5
0.15 0.45 -1.5
0.3 0.45 -1.5
0.45 0.45 -1.5
0.6 0.45 -1.5
0.75 0.45 -1.5
0.9 0.45 -1.5
1.05 0.45 -1.5
1.2 0.45 -1.5
1.35 0.45 -1.5
-1.5 0.6 -1.5
-1.35 0.6 -1.5
-1.2 0.6 -1.5
-1.05 0.6 -1.5
-0.9 0.6 -1.5
-0.75 0.6 -1.5
-0.6 0.6 -1.5
-0.45 0.6 -1.5
-0.3 0.6 -1.5
-0.15 0.6 -1.5
-1.66533e-16 0.6 -1.5
0.15 0.6 -1.5
0.3 0.6 -1.5
0.45 0.6 -1.5
0.6 0.6 -1.5
0.75 0.6 -1.5
0.9 0.6 -1.5
1.05 0.6 -1.5
1.2 0.6 -1.5
1.35 0.6 -1.5
-1.5 0.75 -1.5
-1.35 0.75 -1.5
-1.2 0.75 -1.5
-1.05 0.75 -1.5
-0.9 0.75 -1.5
-0.75 0.75 -1.5
-0.6 0.75 -1.5
-0.45 0.75 -1.5
-0.3 0.75 -1.5
-0.15 0.75 -1.5
-1.66533e-16 0.75 -1.5
0.15 0.75 -1.5
0.3 0.75 -1.5
0.45 0.75 -1.5
0.6 0.75 -1.5
0.75 0.75 -1.5
0.9 0.75 -1.5
1.05 0.75 -1.5
1.2 0.75 -1.5
1.35 0.75 -1.5
-1.5 0.9 -1.5
-1.35 0.9 -1.5
-1.2 0.9 -1.5
-1.05 0.9 -1.5
-0.9 0.9 -1.5
-0.75 0.9 -1.5
-0.6 0.9 -1.5
-0.45 0.9 -1.5
-0.3 0.9 -1.5
-0.15 0.9 -1.5
-1.66533e-16 0.9 -1.5
0.15 0.9 -1.5
0.3 0.9 -1.5
0.45 0.9 -1.5
0.6 0.9 -1.5
0.75 0.9 -1.5
0.9 0.9 -1.5
1.05 0.9 -1.5
1.2 0.9 -1.5
1.35 0.9 -1.5
-1.5 1.05 -1.5
-1.35 1.05 -1.5
-1.2 1.05 -1.5
-1.05 1.05 -1.5
-0.9 1.05 -1.5
-0.75 1.05 -1.5
-0.6 1.05 -1.5
-0.45 1.05 -1.5
-0.3 1.05 -1.5
-0.15 1.05 -1.5
-1.66533e-16 1.05 -1.5
0.15 1.05 -1.5
0.3 1.05 -1.5
0.45 1.05 -1.5
0.6 1.05 -1.5
0.75 1.05 -1.5
0.9 1.05 -1.5
1.05 1.05 -1.5
1.2 1.05 -1.5
1.35 1.05 -1.5
-1.5 1.2 -1.5
-1.35 1.2 -1.5
-1.2 1.2 -1.5
-1.05 1.2 -1.5
-0.9 1.2 -1.5
-0.75 1.2 -1.5
-0.6 1.2 -1.5
-0.45 1.2 -1.5
-0.3 1.2 -1.5
-0.15 1.2 -1.5
-1.66533e-16 1.2 -1.5
0.15 1.2 -1.5
0.3 1.2 -1.5
0.45 1.2 -1.5
0.6 1.2 -1.5
0.75 1.2 -1.5
0.9 1.2 -1.5
1.05 1.2 -1.5
1.2 1.2 -1.5
1.35 1.2 -1.5
-1.5 1.35 -1.5
-1.35 1.35 -1.5
-1.2 1.35 -1.5
-1.05 1.35 -1.5
-0.9 1.35 -1.5
-0.75 1.35 -1.5
-0.6 1.35 -1.5
-0.45 1.35 -1.5
-0.3 1.35 -1.5
-0.15 1.35 -1.5
-1.66533e-16 1.35 -1.5
0.15 1.35 -1.5
0.3 1.35 -1.5
0.45 1.35 -1.5
0.6 1.35 -1.5
0.75 1.35 -1.5
0.9 1.35 -1.5
1.05 1.35 -1.5
1.2 1.35 -1.5
1.35 1.35 -1.5
-1.5 -1.5 -1.35
-1.35 -1.5 -1.35
-1.2 -1.5 -1.35
-1.05 -1.5 -1.35
-0.9 -1.5 -1.35
-0.75 -1.5 -1.35
-0.6 -1.5 -1.35
-0.45 -1.5 -1.35
-0.3 -1.5 -1.35
-0.15 -1.5 -1.35
-1.66533e-16 -1.5 -1.35
0.15 -1.5 -1.35
0.3 -1.5 -1.35
0.45 -1.5 -1.35
0.6 -1.5 -1.35
0.75 -1.5 -1.35
0.9 -1.5 -1.35
1.05 -1.5 -1.35
1.2 -1.5 -1.35
1.35 -1.5 -1.35
-1.5 -1.35 -1.35
-1.35 -1.35 -1.35
-1.2 -1.35 -1.35
-1.05 -1.35 -1.35
-0.9 -1.35 -1.35
-0.75 -1.35 -1.35
-0.6 -1.35 -1.35
-0.45 -1.35 -1.35
-0.3 -1.35 -1.35
-0.15 -1.35 -1.35
-1.66533e-16 -1.35 -1.35
0.15 -1.35 -1.35
0.3 -1.35 -1.35
0.45 -1.35 -1.35
0.6 -1.35 -1.35
0.75 -1.35 -1.35
0.9 -1.35 -1.35
1.05 -1.35 -1.35
1.2 -1.35 -1.35
1.35 -1.35 -1.35
-1.5 -1.2 -1.35
-1.35 -1.2 -1.35
-1.2 -1.2 -1.35
-1.05 -1.2 -1.35
-0.9 -1.2 -1.35
-0.75 -1.2 -1.35
-0.6 -1.2 -1.35
-0.45 -1.2 -1.35
-0.3 -1.2 -1.35
-0.15 -1.2 -1.35
-1.66533e-16 -1.2 -1.35
0.15 -1.2 -1.35
0.3 -1.2 -1.35
0.45 -1.2 -1.35
0.6 -1.2 -1.35
0.75 -1.2 -1.35
0.9 -1.2 -1.35
1.05 -1.2 -1.35
1.2 -1.2 -1.35
1.35 -1.2 -1.35
-1.5 -1.05 -1.35
-1.35 -1.05 -1.35
-1.2 -1.05 -1.35
-1.05 -1.05 -1.35
-0.9 -1.05 -1.35
-0.75 -1.05 -1.35
-0.6 -1.05 -1.35
-0.45 -1.05 -1.35
-0.3 -1.05 -1.35
-0.15 -1.05 -1.35
-1.66533e-16 -1.05 -1.35
0.15 -1.05 -1.35
0.3 -1.05 -1.35
0.45 -1.05 -1.35
0.6 -1.05 -1.35
0.75 -1.05 -1.35
0.9 -1.05 -1.35
1.05 -1.05 -1.35
1.2 -1.05 -1.35
1.35 -1.05 -1.35
-1.5 -0.9 -1.35
-1.35 -0.9 -1.35
-1.2 -0.9 -1.35
-1.05 -0.9 -1.35
-0.9 -0.9 -1.35
-0.75 -0.9 -1.35
-0.6 -0.9 -1.35
-0.45 -0.9 -1.35
-0.3 -0.9 -1.35
-0.15 -0.9 -1.35
-1.66533e-16 -0.9 -1.35
0.15 -0.9 -1.35
0.3 -0.9 -1.35
0.45 -0.9 -1.35
0.6 -0.9 -1.35
0.75 -0.9 -1.35
0.9 -0.9 -1.35
1.05 -0.9 -1.35
1.2 -0.9 -1.35
1.35 -0.9 -1.35
-1.5 -0.75 -1.35
-1.35 -0.75 -1.35
-1.2 -0.75 -1.35
-1.05 -0.75 -1.35
-0.9 -0.75 -1.35
-0.75 -0.75 -1.35
-0.6 -0.75 -1.35
-0.45 -0.75 -1.35
-0.3 -0.75 -1.35
-0.15 -0.75 -1.35
-1.66533e-16 -0.75 -1.35
0.15 -0.75 -1.35
0.3 -0.75 -1.35
0.45 -0.75 -1.35
0.6 -0.75 -1.35
0.75 -0.75 -1.35
0.9 -0.75 -1.35
1.05 -0.75 -1.35
1.2 -0.75 -1.35
1.35 -0.75 -1.35
-1.5 -0.6 -1.35
-1.35 -0.6 -1.35
-1.2 -0.6 -1.35
-1.05 -0.6 -1.35
-0.9 -0.6 -1.35
-0.75 -0.6 -1.35
-0.6 -0.6 -1.35
-0.45 -0.6 -1.35
-0.3 -0.6 -1.35
-0.15 -0.6 -1.35
-1.66533e-16 -0.6 -1.35
0.15 -0.6 -1.35
0.3 -0.6 -1.35
0.45 -0.6 -1.35
0.6 -0.6 -1.35
0.75 -0.6 -1.35
0.9 -0.6 -1.35
1.05 -0.6 -1.35
1.2 -0.6 -1.35
1.35 -0.6 -1.35
-1.5 -0.45 -1.35
-1.35 -0.45 -1.35
-1.2 -0.45 -1.35
-1.05 -0.45 -1.35
-0.9 -0.45 -1.35
-0.75 -0.45 -1.35
-0.6 -0.45 -1.35
-0.45 -0.45 -1.35
-0.3 -0.45 -1.35
-0.15 -0.45 -1.35
-1.66533e-16 -0.45 -1.35
0.15 -0.45 -1.35
0.3 -0.45 -1.35
0.45 -0.45 -1.35
0.6 -0.45 -1.35
0.75 -0.45 -1.35
0.9 -0.45 -1.35
1.05 -0.45 -1.35
1.2 -0.45 -1.35
1.35 -0.45 -1.35
-1.5 -0.3 -1.35
-1.35 -0.3 -1.35
-1.2 -0.3 -1.35
-1.05 -0.3 -1.35
-0.9 -0.3 -1.35
-0.75 -0.3 -1.35
-0.6 -0.3 -1.35
-0.45 -0.3 -1.35
-0.3 -0.3 -1.35
-0.15 -0.3 -1.35
-1.66533e-16 -0.3 -1.35
0.15 -0.3 -1.35
0.3 -0.3 -1.35
0.45 -0.3 -1.35
0.6 -0.3 -1.35
0.75 -0.3 -1.35
0.9 -0.3 -1.35
1.05 -0.3 -1.35
1.2 -0.3 -1.35
1.35 -0.3 -1.35
-1.5 -0.15 -1.35
-1.35 -0.15 -1.35
-1.2 -0.15 -1.35
-1.05 -0.15 -1.35
-0.9 -0.15 -1.35
-0.75 -0.15 -1.35
-0.6 -0.15 -1.35
-0.45 -0.15 -1.35
-0.3 -0.15 -1.35
-0.15 -0.15 -1.35
-1.66533e-16 -0.15 -1.35
0.15 -0.15 -1.35
0.3 -0.15 -1.35
0.45 -0.15 -1.35
0.6 -0.15 -1.35
0.75 -0.15 -1.35
0.9 -0.15 -1.35
1.05 -0.15 -1.35
1.2 -0.15 -1.35
1.35 -0.15 -1.35
-1.5 -1.66533e-16 -1.35
-1.35 -1.66533e-16 -1.35
-1.2 -1.66533e-16 -1.35
-1.05 -1.66533e-16 -1.35
-0.9 -1.66533e-16 -1.35
[...]
POINT_DATA 8000
SCALARS Density double
LOOKUP_TABLE default
44.7049
40.5949
37.0235
33.9562
31.361
29.2091
27.4746
26.1357
25.1745
24.5777
24.3367
24.4477
24.9122
25.7365
26.932
28.5147
30.5051
32.9276
35.8104
39.1845
40.6141
36.638
33.1906
30.2363
27.7424
25.6788
24.019
22.74
21.8234
21.2551
21.026
21.1324
21.5754
22.3619
23.5035
25.0171
26.9239
29.2493
32.0225
35.2757
37.0606
33.2084
29.8759
27.0267
24.627
22.6459
21.0557
19.8329
18.9581
18.4166
18.1989
18.3009
18.724
19.475
20.5662
22.0151
23.8438
26.0787
28.7499
31.8907
34.01
30.2707
27.0431
24.2901
21.9768
20.0714
18.5454
17.3744
16.5381
16.0214
15.8143
15.9125
16.3171
17.0354
18.0802
19.4695
21.2262
23.3779
25.9556
28.9936
31.4306
27.7921
24.6585
21.9918
19.7561
17.919
16.4509
15.3267
14.5254
14.0312
13.8338
13.9284
14.3165
15.0052
16.0079
17.3432
19.035
21.1117
23.6052
26.551
29.2935
25.7429
22.6914
20.1
17.9325
16.1552
14.7381
13.6551
12.8847
12.4104
12.2215
12.313
12.6864
13.349
14.3145
15.6022
17.2368
19.2475
21.6672
24.5322
27.5732
24.0966
21.1143
18.5867
16.4768
14.7503
13.3764
12.3284
11.5842
11.1268
10.9451
11.034
11.3947
12.0349
12.9687
14.2158
15.8018
17.7564
20.1136
22.9103
26.248
22.8307
19.9038
17.4274
15.3639
13.6782
12.3392
11.3195
10.5964
10.1526
9.97667
10.0632
10.4136
11.0355
11.9433
13.1576
14.704
16.6134
18.9202
21.6621
25.3005
21.9268
19.041
16.6025
14.5733
12.918
11.6048
10.6061
9.89861
9.46483
9.29294
9.37752
9.71981
10.3278
11.2161
12.4055
13.9225
15.7981
18.0675
20.7687
24.7173
21.3713
18.5115
16.097
14.0895
12.4535
11.1568
10.1712
9.47355
9.04588
8.87626
8.9592
9.29595
9.89462
10.77
11.9433
13.4412
15.2952
17.5408
20.2163
24.4903
21.1554
18.306
15.9013
13.9026
12.2744
10.9842
10.0038
9.30989
8.8843
8.71508
8.79672
9.13051
9.72468
10.5942
11.7604
13.2501
15.095
17.3308
19.9959
24.6159
21.2754
18.4208
16.0112
14.0082
12.3761
11.0825
10.0991
9.40265
8.97505
8.80434
8.88507
9.21861
9.81326
10.6841
11.8523
13.345
15.1937
17.434
20.1042
25.0957
21.7329
18.8574
16.4285
14.408
12.7603
11.4532
10.4587
9.75351
9.31983
9.1458
9.22609
9.56216
10.1623
11.0417
12.2213
13.7281
15.5934
17.8523
20.5432
25.9362
22.5347
19.6229
17.1605
15.1095
13.4347
12.1044
11.0907
10.3708
9.92715
9.74809
9.82849
10.1699
10.7807
11.6757
12.8759
14.4077
16.302
18.5936
21.3203
27.149
23.6929
20.7298
18.2201
16.1261
14.4133
13.0502
12.0098
11.2695
10.8122
10.6265
10.7077
11.0573
11.6836
12.6012
13.8308
15.3981
17.3335
19.6712
22.4482
28.7502
25.2241
22.1956
19.6254
17.4767
15.7154
14.3109
13.2366
12.4706
11.9963
11.8027
11.8854
12.2458
12.8924
13.8392
15.1063
16.7191
18.7069
21.1033
23.9445
30.7603
27.1499
24.0425
21.3997
19.1852
17.3658
15.9117
14.7971
14.0006
13.5063
13.3038
13.3886
13.7626
14.4336
15.4157
16.7281
18.3953
20.4461
22.9129
25.8313
33.2038
29.4956
26.297
23.5702
21.2799
19.3937
17.8828
16.7219
15.8908
15.374
15.1616
15.2493
15.6391
16.3386
17.3613
18.7259
20.4559
22.5792
25.1273
28.1347
36.1089
32.2905
28.9892
26.1681
23.7929
21.8322
20.2578
19.0458
18.1763
17.6348
17.4116
17.503
17.9108
18.6422
19.7104
21.1332
22.9335
25.1379
27.7771
30.8844
39.5067
35.5667
32.1524
29.2278
26.7597
24.7174
23.074
21.8062
20.8953
20.3271
20.0927
20.1883
20.6158
21.3823
22.5002
23.9867
25.8637
28.157
30.896
34.1132
40.5206
36.5478
33.1035
30.1521
27.6607
25.5993
23.9412
22.6634
21.7475
21.1794
20.95
21.0555
21.4973
22.2821
23.4218
24.9332
26.8378
29.1609
31.9317
35.1825
36.5666
32.7325
29.4169
26.5832
24.1975
22.2285
20.6486
19.4338
18.5647
18.0266
17.81
17.9105
18.3298
19.0748
20.1579
21.5968
23.4138
25.6354
28.2921
31.4171
33.1397
29.4342
26.2383
23.5144
21.2273
19.3448
17.8383
16.6827
15.8579
15.3482
15.1436
15.2397
15.6379
16.3455
17.3754
18.7461
20.481
22.6076
25.1575
28.1654
30.2047
26.6166
23.5303
20.907
18.7106
16.908
15.4693
14.3686
13.5848
13.1016
12.9085
13.0005
13.3793
14.0522
15.0328
16.3404
17.9993
20.0383
22.49
25.3903
27.7285
24.2457
21.2577
18.725
16.6106
14.8801
13.5029
12.4521
11.7057
11.2467
11.064
11.1525
11.5136
12.155
13.0908
14.341
15.931
17.8906
20.2537
23.0571
25.6814
22.2906
19.3887
16.9355
14.893
13.2261
11.9032
10.8965
10.1832
9.74575
9.57239
9.65778
10.0032
10.6167
11.5128
12.7122
14.2412
16.1308
18.4158
21.1341
24.0369
20.7236
17.8945
15.5087
13.5273
11.9146
10.6379
9.66888
8.98391
8.56481
8.39942
8.48211
8.81409
9.40355
10.2655
11.4214
12.8983
14.7281
16.9468
19.5931
22.7724
19.5213
16.7507
14.4191
12.4871
10.918
9.67881
8.7403
8.07828
7.67404
7.51503
7.59537
7.91624
8.48598
9.32001
10.4403
11.8749
13.6563
15.8214
18.4096
21.8695
18.6644
15.9372
13.6458
11.7505
10.214
9.00272
8.08694
7.44197
7.04869
6.89424
6.97255
7.28478
7.83942
8.65223
9.74573
11.1484
12.8936
15.0188
17.564
21.3146
18.1386
15.4388
13.173
11.3011
9.78539
8.59187
7.69053
7.05631
6.66979
6.51791
6.59448
6.90066
7.44511
8.24385
9.31978
10.7018
12.4238
14.5235
17.0414
21.0987
17.9344
15.2458
12.9905
11.1281
9.6209
8.43461
7.53904
6.90895
6.52478
6.37335
6.44847
6.75135
7.29078
8.08297
9.15107
10.5242
12.2365
14.3257
16.8326
21.2183
18.0482
15.3542
13.0938
11.2269
9.71565
8.52578
7.62711
6.99437
6.60803
6.45493
6.52894
6.83139
7.37117
8.1646
9.23488
10.6112
12.3274
14.4215
16.9339
21.675
18.4815
15.7654
13.4847
11.5991
10.0713
8.86701
7.95634
7.31419
6.92118
6.76435
6.83771
7.14272
7.68835
8.49092
9.57348
10.965
12.699
14.8132
17.3476
22.4757
19.2415
16.4872
14.1709
12.2529
10.6961
9.46683
8.53548
7.87734
7.47335
7.31087
7.38416
7.69481
8.25181
9.07134
10.1761
11.5946
13.36
15.509
18.0814
23.6324
20.3408
17.5324
15.166
13.2023
11.6048
10.3405
9.3802
8.69986
8.28092
8.11112
8.18504
8.50441
9.07817
9.92218
11.0587
12.5155
14.3249
16.5231
19.149
25.162
21.7971
18.9198
16.4894
14.4675
12.8183
11.5095
10.5127
9.80449
9.36702
9.1885
9.26386
9.59494
10.1905
11.0661
12.2432
13.7487
15.6143
17.8749
20.5687
27.0859
23.6328
20.6726
18.1655
16.0739
14.3629
13.001
11.9609
11.2198
10.7607
10.5724
10.65
10.9956
11.6177
12.5311
13.7568
15.3208
17.2534
19.5887
22.3639
29.4298
25.8744
22.8185
20.2231
18.0514
16.2695
14.847
13.7576
12.9794
12.496
12.2969
12.3777
12.7403
13.393
14.35
15.6315
17.2623
19.2718
21.6929
24.5618
32.2226
28.5524
25.3892
22.6948
20.4337
18.573
17.0834
15.9394
15.1204
14.6106
14.4001
14.4848
14.8666
15.5534
16.559
17.9024
19.6076
21.7028
24.2197
27.1933
35.4968
31.7002
28.4191
25.6165
23.2579
21.3114
19.7489
18.546
17.683
17.145
16.9226
17.0118
17.4147
18.1387
19.1971
20.6079
22.394
24.5826
27.2042
30.2925
36.8789
33.0336
29.7077
26.8646
24.4703
22.4938
20.9073
19.6872
18.8138
18.2726
18.0541
18.1542
18.5744
19.3218
20.4088
21.8531
23.677
25.907
28.5733
31.7092
33.0521
29.3503
26.1579
23.4372
21.153
19.2731
17.7686
16.6145
15.7905
15.2809
15.0759
15.1708
15.5674
16.2729
17.3004
18.6686
20.4008
22.5248
25.0721
28.0774
29.7432
26.1749
23.1069
20.5007
18.3197
16.5307
15.1034
14.0118
13.2345
12.7551
12.563
12.6533
13.0276
13.6935
14.6649
15.9611
17.6069
19.6313
22.067
24.9502
26.916
23.4698
20.5161
18.0153
15.9297
14.2247
12.8691
11.8358
11.1022
10.6511
10.4712
10.5574
10.911
11.5402
12.4592
13.6886
15.2541
17.186
19.5187
22.2894
24.5366
21.2001
18.3493
15.9436
13.9443
12.3157
11.0255
10.0453
9.35178
8.92676
8.75826
8.84078
9.17565
9.77117
10.6424
11.8106
13.3029
15.1509
17.3902
20.0592
22.574
19.3335
16.5731
14.2511
12.328
10.767
9.53477
8.60192
7.94407
7.54236
7.38414
7.46352
7.78173
8.3473
9.17587
10.2897
11.7169
13.4904
15.647
18.2265
21.0007
17.8414
15.1576
12.9068
11.0487
9.54543
8.36276
7.47049
6.84333
6.46169
6.31235
6.38903
6.69288
7.23262
8.02441
9.09135
10.4626
12.1724
14.2585
16.7619
19.7933
16.6993
14.0772
11.8839
10.0783
8.62189
7.47956
6.62032
6.01816
5.65285
5.51066
5.58502
5.87697
6.39539
7.15693
8.18543
9.51101
11.1689
13.1979
15.6398
18.9325
15.8869
13.3106
11.1601
9.39378
7.97242
6.8603
6.02581
5.44234
5.08916
4.95213
5.02445
5.30708
5.80908
6.54749
7.5468
8.83791
10.4568
12.4432
14.8394
18.4041
15.3891
12.842
10.7188
8.97754
7.57865
6.48591
5.66725
5.09566
4.75001
4.61593
4.68642
4.96246
5.45326
6.17621
7.15629
8.42497
10.0188
11.978
14.3452
18.1987
15.1961
12.6609
10.549
8.81805
7.42846
6.34373
5.53152
4.96459
4.62163
4.4881
4.55698
4.82929
5.31442
6.03005
7.00145
8.2604
9.84368
11.7917
14.1473
18.3125
15.3039
12.763
10.6458
8.91024
7.51647
6.42805
5.61264
5.04295
4.69765
4.56225
4.62978
4.9014
5.38669
6.10346
7.07712
8.33942
9.92708
11.8804
14.2419
18.7473
15.7141
13.15
11.0112
9.25582
7.84433
6.74049
5.91216
5.33225
4.97963
4.83998
4.90657
5.18074
5.6722
6.3988
7.38577
8.66458
10.2715
12.2464
14.6314
19.5103
16.4343
13.8298
11.6533
9.86331
8.42084
7.29009
6.43937
5.842
5.47726
5.33122
5.39746
5.67755
6.18128
6.92631
7.93747
9.24561
10.8863
12.8986
15.3242
20.6141
17.4778
14.8163
12.5866
10.7479
9.26181
8.09323
7.21115
6.58955
6.20832
6.05405
6.12074
6.41018
6.9321
7.70382
8.74951
10.0991
11.7873
13.8522
16.3346
22.0763
18.8632
16.129
13.8316
11.931
10.3896
9.17309
8.25149
7.59959
7.19803
7.03407
7.10215
7.40425
7.94992
8.75594
9.84563
11.2479
12.9962
15.1277
17.6819
23.9193
20.6138
17.7925
15.4142
13.4395
11.8322
10.5589
9.59054
8.90307
8.47798
8.30324
8.37371
8.69151
9.2659
10.113
11.2551
12.72
14.5399
16.7506
19.3908
26.1696
22.7575
19.8359
17.3645
15.3052
13.6226
12.2846
11.2635
10.536
10.0848
9.89842
9.97227
10.3084
10.9159
11.8099
13.0118
14.5481
16.4496
18.751
21.4895
28.8576
25.3259
22.2921
19.717
17.5635
15.7976
14.3883
13.3091
12.5381
12.0586
11.8601
11.9381
12.295
12.939
13.8849
15.1528
16.768
18.7601
21.1622
24.0104
32.0166
28.3536
25.1971
22.5088
20.253
18.3968
16.9107
15.7692
14.9516
14.4422
14.231
14.314
14.6934
15.377
16.3789
17.7182
19.4188
21.5089
24.0206
26.9885
33.7446
30.0162
26.7989
24.0555
21.7508
19.8528
18.3327
17.1659
16.332
15.8158
15.6073
15.7021
16.102
16.8144
17.8524
19.2343
20.9835
23.1275
25.6975
28.728
30.0343
26.4541
23.3751
20.7588
18.5688
16.7716
15.3373
14.2399
13.4578
12.9749
12.7805
12.87
13.245
13.9133
14.8887
16.1908
17.844
19.8775
22.3238
25.2188
26.8339
23.3918
20.4422
17.9451
15.863
14.1611
12.808
11.7765
11.0439
10.5929
10.4123
10.4969
10.8484
11.4748
12.3908
13.6171
15.1795
17.1085
19.4383
22.2063
24.106
20.7908
17.9602
15.5734
13.5913
11.978
10.7008
9.73103
9.04497
8.6243
8.45687
8.53718
8.8667
9.45397
10.3144
11.4697
12.9472
14.7789
17.0006
19.6511
21.8158
18.6148
15.8918
13.6048
11.7137
10.1813
8.97353
8.06055
7.41742
7.02484
6.86984
6.94644
7.25598
7.8073
8.61655
9.70663
11.1063
12.8491
14.9724
17.5163
19.9314
16.8306
14.2023
12.0035
10.1931
8.73254
7.58669
6.72451
6.11994
5.7527
5.60907
5.68255
5.97431
6.49345
7.25682
8.28843
9.61845
11.282
13.3179
15.7676
18.4242
15.4084
12.8606
10.7371
8.9956
7.59671
6.50414
5.68577
5.11455
4.76931
4.63561
4.70647
4.98289
5.47415
6.19774
7.1787
8.44856
10.0439
12.0049
14.3742
17.2697
14.3224
11.8397
9.77711
8.0917
6.74307
5.69403
4.91153
4.36763
4.04042
3.91483
3.98345
4.24713
4.7153
5.40599
6.34518
7.56561
9.10514
11.0052
13.3094
16.4481
13.5516
11.1174
9.10028
7.45688
6.14603
5.12976
4.37429
3.85096
3.53723
3.41756
3.48419
3.73784
4.1881
4.85347
5.76075
6.94369
8.4412
10.2956
12.5514
15.9443
13.08
10.6767
8.68877
7.07237
5.78587
4.79078
4.05274
3.54261
3.23736
3.1211
3.18586
3.43231
3.87021
4.51849
5.40459
6.56303
8.03342
9.85869
12.0837
15.7485
12.8974
10.5067
8.53087
6.92576
5.6495
4.66332
3.93257
3.42775
3.12562
3.01007
3.07304
3.31526
3.7467
4.38669
5.2631
6.41086
7.86987
9.68326
11.896
15.8569
12.9994
10.6028
8.62152
7.01154
5.73098
4.74105
4.00703
3.49938
3.19478
3.07713
3.13845
3.37963
3.81091
4.4519
5.33064
6.48203
7.94587
9.76503
11.9843
16.2712
13.3878
10.9667
8.96251
7.33145
6.03197
5.02551
4.27758
3.75884
3.44616
3.32367
3.38365
3.62727
4.06504
4.71663
5.60992
6.77938
8.2642
10.1067
12.3511
16.999
14.0707
11.6068
9.56256
7.89457
6.56183
5.52632
4.75406
4.2162
3.89007
3.76026
3.81949
4.0693
4.52036
5.19215
6.112
7.31354
8.83501
10.7178
13.0055
18.0534
15.0619
12.5379
10.4371
8.71713
7.33752
6.26111
5.45473
4.89028
4.54584
4.40667
4.46607
4.72594
5.19692
5.89806
6.85576
8.1025
9.67529
11.6144
13.9624
19.4529
16.3809
13.7804
11.608
9.82197
8.38301
7.25494
6.40563
5.80801
5.44114
5.29111
5.35184
5.62549
6.12253
6.86127
7.86699
9.17078
10.8082
12.8183
15.2424
21.221
18.0523
15.3603
13.1024
11.2378
9.72841
8.53924
7.63944
7.00316
6.61057
6.44866
6.51194
6.80274
7.33115
8.11462
9.17717
10.5484
12.2623
14.3565
16.8711
23.385
20.1052
17.3081
14.9523
12.9981
11.4087
10.1505
9.19395
8.51459
8.09372
7.91927
7.98626
8.29705
8.86127
9.69542
10.8222
12.2697
14.0703
16.2602
18.8781
25.9764
22.5722
19.6581
17.1935
15.1402
13.4628
12.1289
11.1105
10.3846
9.93348
9.74604
9.8177
10.1508
10.7544
11.6441
12.8413
14.3725
16.2686
18.5643
21.2969
29.0295
25.4893
22.4474
19.8648
17.7043
15.932
14.517
13.4328
12.6575
12.1747
11.9739
12.051
12.4082
13.0541
14.0033
15.2759
16.897
18.8962
21.3064
24.1636
31.085
27.4616
24.3423
21.689
19.4654
17.6387
16.179
15.0608
14.2628
13.7692
13.5695
13.6594
14.0405
14.7207
15.7136
17.0386
18.7199
20.786
23.2692
26.2047
27.4795
24.0089
21.0326
18.5109
16.4066
14.6849
13.3149
12.2692
11.5256
11.067
10.8822
10.9664
11.3212
11.955
12.8823
14.1237
15.7048
17.6558
20.0105
22.806
24.3769
21.049
18.2068
15.8092
13.8174
12.1955
10.9108
9.93459
9.24324
8.81848
8.64828
8.72729
9.05717
9.64664
10.5112
11.6727
13.1584
15.0002
17.2335
19.897
21.7388
18.5424
15.8241
13.5415
11.6547
10.126
8.92138
8.01074
7.36893
6.97652
6.82052
6.89501
7.20155
7.74928
8.55467
9.64088
11.0369
12.7763
14.8965
17.4376
19.5295
16.4519
13.8457
11.6679
9.87681
8.43369
7.30289
6.45288
5.85715
5.49505
5.35262
5.42332
5.70851
6.21768
6.96823
7.98474
9.29792
10.9433
12.9599
15.3895
17.7161
14.7429
12.2359
10.1509
8.44509
7.07841
6.01382
5.21842
4.66439
4.32992
4.2001
4.26771
4.53388
5.00836
5.70939
6.66296
7.90154
9.46253
11.3868
13.7174
16.269
13.3846
10.9622
8.95656
7.32407
6.02329
5.01597
4.26795
3.75024
3.43996
3.32132
3.38648
3.63626
4.08057
4.73839
5.63704
6.81072
8.29866
10.1433
12.3892
15.1629
12.3501
9.99625
8.05525
6.48255
5.23574
4.27546
3.56645
3.07869
2.78838
2.67899
2.74211
2.9783
3.39754
4.01942
4.87246
5.99247
7.42035
9.20002
11.3771
14.377
11.6175
9.31478
7.4222
5.89451
4.68846
3.76379
3.08437
2.6193
2.34407
2.2415
2.30277
2.52823
2.92793
3.52197
4.33992
5.41899
6.80142
8.53228
10.658
13.8956
11.17
8.89996
7.0385
5.53988
4.36029
3.45883
2.79868
2.34832
2.08267
1.98412
2.04355
2.26117
2.64718
3.2222
4.01668
5.06886
6.42191
8.12157
10.2148
13.7086
10.9968
8.74018
6.89168
5.40533
4.23704
3.34556
2.69367
2.24945
1.98747
1.88986
1.94736
2.16015
2.53872
3.10424
3.88783
4.92825
6.26903
7.95609
10.0364
13.8118
11.0933
8.83046
6.97628
5.48488
4.3122
3.41694
2.7618
2.31473
2.0502
1.9503
2.00577
2.21702
2.59494
3.16119
3.94719
4.99167
6.33786
8.03135
10.1188
14.2071
11.4614
9.17271
7.29417
5.7803
4.58737
3.67439
3.00429
2.54522
2.2718
2.16635
2.21992
2.43335
2.81801
3.39579
4.19786
5.26231
6.63154
8.35034
10.4648
14.9025
12.1097
9.77579
7.85466
6.30128
5.07257
4.12816
3.43159
2.95151
2.66309
2.54915
2.60138
2.8212
3.22035
3.82052
4.65207
5.75188
7.16106
8.92331
11.0838
15.9117
13.0526
10.6553
8.6742
7.0652
5.78602
4.79727
4.06341
3.554
3.24509
3.12038
3.17237
3.40309
3.82431
4.45711
5.33055
6.47991
7.94471
9.7673
11.9918
17.2541
14.3107
11.8329
9.77591
8.09651
6.75358
5.70891
4.92821
4.38232
4.04848
3.9115
3.96475
4.21066
4.66078
5.33518
6.26138
7.47279
9.0072
10.9054
13.2104
18.9539
15.9097
13.3359
11.1886
9.42579
8.00754
6.89709
6.06165
5.47357
5.1115
4.96142
5.01747
5.28231
5.76698
6.49041
7.47841
8.7625
10.3786
12.366
14.7661
21.0397
17.8798
15.1961
12.946
11.0885
9.58518
8.40089
7.50446
6.86987
6.47721
6.3136
6.37383
6.66057
7.18426
7.96258
9.01971
10.3853
12.0934
14.1816
16.6899
23.5438
20.2549
17.4492
15.0853
13.1236
11.5273
10.2627
9.3005
8.61617
8.19125
8.01389
8.07936
8.39027
8.95639
9.7942
10.9263
12.3806
14.1894
16.3884
19.0163
26.5016
23.0719
20.1337
17.6468
15.573
13.8771
12.5272
11.4954
10.7589
10.3005
10.1092
10.1807
10.5174
11.1286
12.0295
13.2413
14.7902
16.7068
19.0252
21.7826
28.8699
25.3387
22.3057
19.7318
17.5801
15.8164
14.4103
13.3352
12.5691
12.0954
11.9034
11.9885
12.3525
13.0037
13.9565
15.2308
16.8519
18.8492
21.2559
24.1082
25.3565
21.9824
19.0967
16.659
14.6307
12.9763
11.6635
10.6642
9.95494
9.5179
9.3414
9.42039
9.75673
10.3592
11.2432
12.4302
13.947
15.8248
18.0987
20.8065
22.3399
19.113
16.366
14.0569
12.1458
10.5956
9.37229
8.44598
7.79177
7.39047
7.22936
7.30282
7.61267
8.16822
8.98599
10.089
11.5058
13.2697
15.4175
17.9888
19.7812
16.6901
14.0716
11.8823
10.081
8.62875
7.48995
6.63304
6.0315
5.66469
5.51877
5.58742
5.87234
6.38334
7.13809
8.16129
9.48355
11.1401
13.1698
15.6139
17.6435
14.6755
12.1738
10.094
8.39339
7.03152
5.9711
5.17892
4.62681
4.29271
4.16158
4.22629
4.48828
4.95779
5.65366
6.60235
7.8366
9.39387
11.3149
13.6427
15.893
13.0336
10.6355
8.65318
7.04266
5.76201
4.77237
4.03891
3.53195
3.22802
3.1109
3.17259
3.41413
3.84608
4.48829
5.36906
6.52338
7.99096
9.81456
12.0388
14.4994
11.7325
9.42296
7.52443
5.99167
4.78143
3.85339
3.17122
2.70388
2.42663
2.32216
2.38164
2.60566
3.00483
3.59989
4.42086
5.50503
6.89441
8.63366
10.7688
13.4363
10.7442
8.50671
6.67656
5.20755
4.05528
3.17809
2.53839
2.10391
1.84885
1.75499
1.81277
2.02237
2.39431
2.94992
3.72081
4.7465
6.07116
7.74118
9.8038
12.6822
10.0458
7.86221
6.08348
4.66267
3.5544
2.71596
2.10868
1.69927
1.46107
1.37508
1.43129
1.62955
1.98022
2.50507
3.23714
4.2179
5.49337
7.11126
9.11965
12.2207
9.61982
7.47072
5.72514
4.33561
3.25611
2.44314
1.85719
1.46422
1.23685
1.1556
1.2101
1.39995
1.73548
2.23904
2.9449
3.89603
5.13967
6.72425
8.69829
12.0413
9.45485
7.31996
5.58824
4.21205
3.14503
2.34327
1.76674
1.38086
1.15783
1.07789
1.13038
1.31475
1.64161
2.13414
2.82765
3.76588
4.99639
6.5677
8.52832
12.1397
9.54615
7.40466
5.66696
4.28548
3.21397
2.40847
1.82879
1.44015
1.2146
1.13225
1.18234
1.36444
1.68983
2.18266
2.87876
3.82167
5.05841
6.63698
8.60548
12.5178
9.89579
7.7269
5.96328
4.55778
3.46456
2.64006
2.04435
1.6428
1.40757
1.31889
1.3663
1.55002
1.88225
2.38772
3.10187
4.06716
5.32935
6.93542
8.9328
13.1841
10.5126
8.29607
6.48714
5.03931
3.9075
3.04894
2.42439
1.99977
1.74774
1.6491
1.69424
1.88444
2.23263
2.76332
3.51066
4.51526
5.82115
7.47402
9.52038
14.153
11.4121
9.12866
7.25612
5.74875
4.56249
3.65568
2.99022
2.53308
2.25793
2.14669
2.191
2.39311
2.76618
3.33375
4.12798
5.18718
6.5534
8.27081
10.3849
15.4444
12.6156
10.2476
8.29474
6.71231
5.45746
4.48994
3.77316
3.27564
2.97257
2.84738
2.89291
3.11206
3.51767
4.1318
4.98436
6.11123
7.5523
9.35009
11.5488
17.0837
14.1499
11.6815
9.6335
7.96253
6.62713
5.58868
4.81239
4.26868
3.93454
3.79493
3.84373
4.08406
4.52806
5.19619
6.11614
7.32135
8.84955
10.7415
13.0399
19.1003
16.0464
13.4635
11.3076
9.53679
8.11111
6.99376
6.15193
5.558
5.19082
5.03676
5.09043
5.35495
5.84158
6.56923
7.56351
8.8556
10.4811
12.4789
14.8902
21.5274
18.3401
15.6304
13.3559
11.4759
9.9522
8.74987
7.83809
7.19119
6.7897
6.62121
6.68089
6.97166
7.50396
8.29522
9.36918
10.755
12.4861
14.5996
17.1352
24.4014
21.0689
18.2221
15.8198
13.823
12.1951
10.9032
9.91817
9.21632
8.77961
8.59667
8.66308
8.98155
9.5617
10.4197
11.5775
13.0624
14.9061
17.1436
19.8132
27.0727
23.6198
20.6603
18.1541
16.0637
14.3542
12.994
11.9558
11.2169
10.7602
10.5744
10.6551
11.0041
11.6301
12.5481
13.779
15.3486
17.2873
19.629
22.4108
23.6375
20.3456
17.5373
15.1714
13.2085
11.6121
10.3488
9.38939
8.70967
8.29104
8.12133
8.19536
8.5152
9.09015
9.93639
11.0763
12.5378
14.3531
16.558
19.1913
20.6942
17.5535
14.8881
12.6552
10.8139
9.32591
8.15598
7.27308
6.65113
6.27
6.11635
6.18434
6.47601
7.00136
7.7779
8.82984
10.1871
11.8841
13.9586
16.4513
18.2032
15.2024
12.6698
10.5613
8.83441
7.44896
6.36793
5.55832
4.99218
4.64767
4.51011
4.57283
4.83775
5.31552
6.02509
6.99272
8.25061
9.8355
11.7874
14.1486
16.1268
13.2531
10.8417
8.84734
7.22597
5.93577
4.93782
4.19718
3.68399
3.37469
3.25314
3.31163
3.55175
3.98473
4.631
5.51908
6.68375
8.16424
10.0027
12.2433
14.4304
11.6691
9.36556
7.47324
5.9468
4.74276
3.8204
3.1429
2.67859
2.40226
2.29626
2.35173
2.56971
2.96172
3.54964
4.36436
5.44352
6.82902
8.56522
10.6978
13.0827
10.4174
8.20644
6.4022
4.95813
3.82925
2.97312
2.35116