# vtk DataFile Version 3.0
vtk output
ASCII
DATASET STRUCTURED_GRID
DIMENSIONS 20 20 20
POINTS 8000 double
-1.5 -1.5 -1.5
-1.35 -1.5 -1.5
-1.2 -1.5 -1.5
-1.05 -1.5 -1.5
-0.9 -1.5 -1.5
-0.75 -1.5 -1.5
-0.6 -1.5 -1.5
-0.45 -1.5 -1.5
-0.3 -1.5 -1.5
-0.15 -1.5 -1.5
-1.66533e-16 -1.5 -1.5
0.15 -1.5 -1.5
0.3 -1.5 -1.5
0.45 -1.5 -1.5
0.6 -1.5 -1.5
0.75 -1.5 -1.5
0.9 -1.5 -1.5
1.05 -1.5 -1.5
1.2 -1.5 -1.5
1.35 -1.5 -1.5
-1.5 -1.35 -1.5
-1.35 -1.35 -1.5
-1.2 -1.35 -1.5
-1.05 -1.35 -1.5
-0.9 -1.35 -1.5
-0.75 -1.35 -1.5
-0.6 -1.35 -1.5
-0.45 -1.35 -1.5
-0.3 -1.35 -1.5
-0.15 -1.35 -1.5
-1.66533e-16 -1.35 -1.5
0.15 -1.35 -1.5
0.3 -1.35 -1.5
0.45 -1.35 -1.5
0.6 -1.35 -1.5
0.75 -1.35 -1.5
0.9 -1.35 -1.5
1.05 -1.35 -1.5
1.2 -1.35 -1.5
1.35 -1.35 -1.5
-1.5 -1.2 -1.5
-1.35 -1.2 -1.5
-1.2 -1.2 -1.5
-1.05 -1.2 -1.5
-0.9 -1.2 -1.5
-0.75 -1.2 -1.5
-0.6 -1.2 -1.5
-0.45 -1.2 -1.5
-0.3 -1.2 -1.5
-0.15 -1.2 -1.5
-1.66533e-16 -1.2 -1.5
0.15 -1.2 -1.5
0.3 -1.2 -1.5
0.45 -1.2 -1.5
0.6 -1.2 -1.5
0.75 -1.2 -1.5
0.9 -1.2 -1.5
1.05 -1.2 -1.5
1.2 -1.2 -1.5
1.35 -1.2 -1.5
-1.5 -1.05 -1.5
-1.35 -1.05 -1.5
-1.2 -1.05 -1.5
-1.05 -1.05 -1.5
-0.9 -1.05 -1.5
-0.75 -1.05 -1.5
-0.6 -1.05 -1.5
-0.45 -1.05 -1.5
-0.3 -1.05 -1.5
-0.15 -1.05 -1.5
-1.66533e-16 -1.05 -1.5
0.15 -1.05 -1.5
0.3 -1.05 -1.5
0.45 -1.05 -1.5
0.6 -1.05 -1.5
0.75 -1.05 -1.5
0.9 -1.05 -1.5
1.05 -1.05 -1.5
1.2 -1.05 -1.5
1.35 -1.05 -1.5
-1.5 -0.9 -1.5
-1.35 -0.9 -1.5
-1.2 -0.9 -1.5
-1.05 -0.9 -1.5
-0.9 -0.9 -1.5
-0.75 -0.9 -1.5
-0.6 -0.9 -1.5
-0.45 -0.9 -1.5
-0.3 -0.9 -1.5
-0.15 -0.9 -1.5
-1.66533e-16 -0.9 -1.5
0.15 -0.9 -1.5
0.3 -0.9 -1.5
0.45 -0.9 -1.5
0.6 -0.9 -1.5
0.75 -0.9 -1.5
0.9 -0.9 -1.5
1.05 -0.9 -1.5
1.2 -0.9 -1.5
1.35 -0.9 -1.5
-1.5 -0.75 -1.5
-1.35 -0.75 -1.5
-1.2 -0.75 -1.5
-1.05 -0.75 -1.5
-0.9 -0.75 -1.5
-0.75 -0.75 -1.5
-0.6 -0.75 -1.5
-0.45 -0.75 -1.5
-0.3 -0.75 -1.5
-0.15 -0.75 -1.5
-1.66533e-16 -0.75 -1.5
0.15 -0.75 -1.5
0.3 -0.75 -1.5
0.45 -0.75 -1.5
0.6 -0.75 -1.5
0.75 -0.75 -1.5
0.9 -0.75 -1.5
1.05 -0.75 -1.5
1.2 -0.75 -1.5
1.35 -0.75 -1.5
-1.5 -0.6 -1.5
-1.35 -0.6 -1.5
-1.2 -0.6 -1.5
-1.05 -0.6 -1.5
-0.9 -0.6 -1.5
-0.75 -0.6 -1.5
-0.6 -0.6 -1.5
-0.45 -0.6 -1.5
-0.3 -0.6 -1.5
-0.15 -0.6 -1.5
-1.66533e-16 -0.6 -1.5
0.15 -0.6 -1.5
0.3 -0.6 -1.5
0.45 -0.6 -1.5
0.6 -0.6 -1.5
0.75 -0.6 -1.5
0.9 -0.6 -1.5
1.05 -0.6 -1.5
1.2 -0.6 -1.5
1.35 -0.6 -1.5
-1.5 -0.45 -1.5
-1.35 -0.45 -1.5
-1.2 -0.45 -1.5
-1.05 -0.45 -1.5
-0.9 -0.45 -1.5
-0.75 -0.45 -1.5
-0.6 -0.45 -1.5
-0.45 -0.45 -1.5
-0.3 -0.45 -1.5
-0.15 -0.45 -1.5
-1.66533e-16 -0.45 -1.5
0.15 -0.45 -1.5
0.3 -0.45 -1.5
0.45 -0.45 -1.5
0.6 -0.45 -1.5
0.75 -0.45 -1.5
0.9 -0.45 -1.5
1.05 -0.45 -1.5
1.2 -0.45 -1.5
1.35 -0.45 -1.5
-1.5 -0.3 -1.5
-1.35 -0.3 -1.5
-1.2 -0.3 -1.5
-1.05 -0.3 -1.5
-0.9 -0.3 -1.5
-0.75 -0.3 -1.5
-0.6 -0.3 -1.5
-0.45 -0.3 -1.5
-0.3 -0.3 -1.5
-0.15 -0.3 -1.5
-1.66533e-16 -0.3 -1.5
0.15 -0.3 -1.5
0.3 -0.3 -1.5
0.45 -0.3 -1.5
0.6 -0.3 -1.5
0.75 -0.3 -1.5
0.9 -0.3 -1.5
1.05 -0.3 -1.5
1.2 -0.3 -1.5
1.35 -0.3 -1.5
-1.5 -0.15 -1.5
-1.35 -0.15 -1.5
-1.2 -0.15 -1.5
-1.05 -0.15 -1.5
-0.9 -0.15 -1.5
-0.75 -0.15 -1.5
-0.6 -0.15 -1.5
-0.45 -0.15 -1.5
-0.3 -0.15 -1.5
-0.15 -0.15 -1.5
-1.66533e-16 -0.15 -1.5
0.15 -0.15 -1.5
0.3 -0.15 -1.5
0.45 -0.15 -1.5
0.6 -0.15 -1.5
0.75 -0.15 -1.5
0.9 -0.15 -1.5
1.05 -0.15 -1.5
1.2 -0.15 -1.5
1.35 -0.15 -1.5
-1.5 -1.66533e-16 -1.5
-1.35 -1.66533e-16 -1.5
-1.2 -1.66533e-16 -1.5
-1.05 -1.66533e-16 -1.5
-0.9 -1.66533e-16 -1.5
-0.75 -1.66533e-16 -1.5
-0.6 -1.66533e-16 -1.5
-0.45 -1.66533e-16 -1.5
-0.3 -1.66533e-16 -1.5
-0.15 -1.66533e-16 -1.5
-1.66533e-16 -1.66533e-16 -1.5
0.15 -1.66533e-16 -1.5
0.3 -1.66533e-16 -1.5
0.45 -1.66533e-16 -1.5
0.6 -1.66533e-16 -1.5
0.75 -1.66533e-16 -1.5
0.9 -1.66533e-16 -1.5
1.05 -1.66533e-16 -1.5
1.2 -1.66533e-16 -1.5
1.35 -1.66533e-16 -1.5
-1.5 0.15 -1.5
-1.35 0.15 -1.5
-1.2 0.15 -1.5
-1.05 0.15 -1.5
-0.9 0.15 -1.5
-0.75 0.15 -1.5
-0.6 0.15 -1.5
-0.45 0.15 -1.5
-0.3 0.15 -1.5
-0.15 0.15 -1.5
-1.66533e-16 0.15 -1.5
0.15 0.15 -1.5
0.3 0.15 -1.5
0.45 0.15 -1.5
0.6 0.15 -1.5
0.75 0.15 -1.5
0.9 0.15 -1.5
1.05 0.15 -1.5
1.2 0.15 -1.5
1.35 0.15 -1.5
-1.5 0.3 -1.5
-1.35 0.3 -1.5
-1.2 0.3 -1.5
-1.05 0.3 -1.5
-0.9 0.3 -1.5
-0.75 0.3 -1.5
-0.6 0.3 -1.5
-0.45 0.3 -1.5
-0.3 0.3 -1.5
-0.15 0.3 -1.5
-1.66533e-16 0.3 -1.5
0.15 0.3 -1.5
0.3 0.3 -1.5
0.45 0.3 -1.5
0.6 0.3 -1.5
0.75 0.3 -1.5
0.9 0.3 -1.5
1.05 0.3 -1.5
1.2 0.3 -1.5
1.35 0.3 -1.5
-1.5 0.45 -1.5
-1.35 0.45 -1.5
-1.2 0.45 -1.5
-1.05 0.45 -1.5
-0.9 0.45 -1.5
-0.75 0.45 -1.5
-0.6 0.45 -1.5
-0.45 0.45 -1.5
-0.3 0.45 -1.5
-0.15 0.45 -1.5
-1.66533e-16 0.45 -1.5
0.15 0.45 -1.5
0.3 0.45 -1.5
0.45 0.45 -1.5
0.6 0.45 -1.5
0.75 0.45 -1.5
0.9 0.45 -1.5
1.05 0.45 -1.5
1.2 0.45 -1.5
1.35 0.45 -1.5
-1.5 0.6 -1.5
-1.35 0.6 -1.5
-1.2 0.6 -1.5
-1.05 0.6 -1.5
-0.9 0.6 -1.5
-0.75 0.6 -1.5
-0.6 0.6 -1.5
-0.45 0.6 -1.5
-0.3 0.6 -1.5
-0.15 0.6 -1.5
-1.66533e-16 0.6 -1.5
0.15 0.6 -1.5
0.3 0.6 -1.5
0.45 0.6 -1.5
0.6 0.6 -1.5
0.75 0.6 -1.5
0.9 0.6 -1.5
1.05 0.6 -1.5
1.2 0.6 -1.5
1.35 0.6 -1.5
-1.5 0.75 -1.5
-1.35 0.75 -1.5
-1.2 0.75 -1.5
-1.05 0.75 -1.5
-0.9 0.75 -1.5
-0.75 0.75 -1.5
-0.6 0.75 -1.5
-0.45 0.75 -1.5
-0.3 0.75 -1.5
-0.15 0.75 -1.5
-1.66533e-16 0.75 -1.5
0.15 0.75 -1.5
0.3 0.75 -1.5
0.45 0.75 -1.5
0.6 0.75 -1.5
0.75 0.75 -1.5
0.9 0.75 -1.5
1.05 0.75 -1.5
1.2 0.75 -1.5
1.35 0.75 -1.5
-1.5 0.9 -1.5
-1.35 0.9 -1.5
-1.2 0.9 -1.5
-1.05 0.9 -1.5
-0.9 0.9 -1.5
-0.75 0.9 -1.5
-0.6 0.9 -1.5
-0.45 0.9 -1.5
-0.3 0.9 -1.5
-0.15 0.9 -1.5
-1.66533e-16 0.9 -1.5
0.15 0.9 -1.5
0.3 0.9 -1.5
0.45 0.9 -1.5
0.6 0.9 -1.5
0.75 0.9 -1.5
0.9 0.9 -1.5
1.05 0.9 -1.5
1.2 0.9 -1.5
1.35 0.9 -1.5
-1.5 1.05 -1.5
-1.35 1.05 -1.5
-1.2 1.05 -1.5
-1.05 1.05 -1.5
-0.9 1.05 -1.5
-0.75 1.05 -1.5
-0.6 1.05 -1.5
-0.45 1.05 -1.5
-0.3 1.05 -1.5
-0.15 1.05 -1.5
-1.66533e-16 1.05 -1.5
0.15 1.05 -1.5
0.3 1.05 -1.5
0.45 1.05 -1.5
0.6 1.05 -1.5
0.75 1.05 -1.5
0.9 1.05 -1.5
1.05 1.05 -1.5
1.2 1.05 -1.5
1.35 1.05 -1.5
-1.5 1.2 -1.5
-1.35 1.2 -1.5
-1.2 1.2 -1.5
-1.05 1.2 -1.5
-0.9 1.2 -1.5
-0.75 1.2 -1.5
-0.6 1.2 -1.5
-0.45 1.2 -1.5
-0.3 1.2 -1.5
-0.15 1.2 -1.5
-1.66533e-16 1.2 -1.5
0.15 1.2 -1.5
0.3 1.2 -1.5
0.45 1.2 -1.5
0.6 1.2 -1.5
0.75 1.2 -1.5
0.9 1.2 -1.5
1.05 1.2 -1.5
1.2 1.2 -1.5
1.35 1.2 -1.5
-1.5 1.35 -1.5
-1.35 1.35 -1.5
-1.2 1.35 -1.5
-1.05 1.35 -1.5
-0.9 1.35 -1.5
-0.75 1.35 -1.5
-0.6 1.35 -1.5
-0.45 1.35 -1.5
-0.3 1.35 -1.5
-0.15 1.35 -1.5
-1.66533e-16 1.35 -1.5
0.15 1.35 -1.5
0.3 1.35 -1.5
0.45 1.35 -1.5
0.6 1.35 -1.5
0.75 1.35 -1.5
0.9 1.35 -1.5
1.05 1.35 -1.5
1.2 1.35 -1.5
1.35 1.35 -1.5
-1.5 -1.5 -1.35
-1.35 -1.5 -1.35
-1.2 -1.5 -1.35
-1.05 -1.5 -1.35
-0.9 -1.5 -1.35
-0.75 -1.5 -1.35
-0.6 -1.5 -1.35
-0.45 -1.5 -1.35
-0.3 -1.5 -1.35
-0.15 -1.5 -1.35
-1.66533e-16 -1.5 -1.35
0.15 -1.5 -1.35
0.3 -1.5 -1.35
0.45 -1.5 -1.35
0.6 -1.5 -1.35
0.75 -1.5 -1.35
0.9 -1.5 -1.35
1.05 -1.5 -1.35
1.2 -1.5 -1.35
1.35 -1.5 -1.35
-1.5 -1.35 -1.35
-1.35 -1.35 -1.35
-1.2 -1.35 -1.35
-1.05 -1.35 -1.35
-0.9 -1.35 -1.35
-0.75 -1.35 -1.35
-0.6 -1.35 -1.35
-0.45 -1.35 -1.35
-0.3 -1.35 -1.35
-0.15 -1.35 -1.35
-1.66533e-16 -1.35 -1.35
0.15 -1.35 -1.35
0.3 -1.35 -1.35
0.45 -1.35 -1.35
0.6 -1.35 -1.35
0.75 -1.35 -1.35
0.9 -1.35 -1.35
1.05 -1.35 -1.35
1.2 -1.35 -1.35
1.35 -1.35 -1.35
-1.5 -1.2 -1.35
-1.35 -1.2 -1.35
-1.2 -1.2 -1.35
-1.05 -1.2 -1.35
-0.9 -1.2 -1.35
-0.75 -1.2 -1.35
-0.6 -1.2 -1.35
-0.45 -1.2 -1.35
-0.3 -1.2 -1.35
-0.15 -1.2 -1.35
-1.66533e-16 -1.2 -1.35
0.15 -1.2 -1.35
0.3 -1.2 -1.35
0.45 -1.2 -1.35
0.6 -1.2 -1.35
0.75 -1.2 -1.35
0.9 -1.2 -1.35
1.05 -1.2 -1.35
1.2 -1.2 -1.35
1.35 -1.2 -1.35
-1.5 -1.05 -1.35
-1.35 -1.05 -1.35
-1.2 -1.05 -1.35
-1.05 -1.05 -1.35
-0.9 -1.05 -1.35
-0.75 -1.05 -1.35
-0.6 -1.05 -1.35
-0.45 -1.05 -1.35
-0.3 -1.05 -1.35
-0.15 -1.05 -1.35
-1.66533e-16 -1.05 -1.35
0.15 -1.05 -1.35
0.3 -1.05 -1.35
0.45 -1.05 -1.35
0.6 -1.05 -1.35
0.75 -1.05 -1.35
0.9 -1.05 -1.35
1.05 -1.05 -1.35
1.2 -1.05 -1.35
1.35 -1.05 -1.35
-1.5 -0.9 -1.35
-1.35 -0.9 -1.35
-1.2 -0.9 -1.35
-1.05 -0.9 -1.35
-0.9 -0.9 -1.35
-0.75 -0.9 -1.35
-0.6 -0.9 -1.35
-0.45 -0.9 -1.35
-0.3 -0.9 -1.35
-0.15 -0.9 -1.35
-1.66533e-16 -0.9 -1.35
0.15 -0.9 -1.35
0.3 -0.9 -1.35
0.45 -0.9 -1.35
0.6 -0.9 -1.35
0.75 -0.9 -1.35
0.9 -0.9 -1.35
1.05 -0.9 -1.35
1.2 -0.9 -1.35
1.35 -0.9 -1.35
-1.5 -0.75 -1.35
-1.35 -0.75 -1.35
-1.2 -0.75 -1.35
-1.05 -0.75 -1.35
-0.9 -0.75 -1.35
-0.75 -0.75 -1.35
-0.6 -0.75 -1.35
-0.45 -0.75 -1.35
-0.3 -0.75 -1.35
-0.15 -0.75 -1.35
-1.66533e-16 -0.75 -1.35
0.15 -0.75 -1.35
0.3 -0.75 -1.35
0.45 -0.75 -1.35
0.6 -0.75 -1.35
0.75 -0.75 -1.35
0.9 -0.75 -1.35
1.05 -0.75 -1.35
1.2 -0.75 -1.35
1.35 -0.75 -1.35
-1.5 -0.6 -1.35
-1.35 -0.6 -1.35
-1.2 -0.6 -1.35
-1.05 -0.6 -1.35
-0.9 -0.6 -1.35
-0.75 -0.6 -1.35
-0.6 -0.6 -1.35
-0.45 -0.6 -1.35
-0.3 -0.6 -1.35
-0.15 -0.6 -1.35
-1.66533e-16 -0.6 -1.35
0.15 -0.6 -1.35
0.3 -0.6 -1.35
0.45 -0.6 -1.35
0.6 -0.6 -1.35
0.75 -0.6 -1.35
0.9 -0.6 -1.35
1.05 -0.6 -1.35
1.2 -0.6 -1.35
1.35 -0.6 -1.35
-1.5 -0.45 -1.35
-1.35 -0.45 -1.35
-1.2 -0.45 -1.35
-1.05 -0.45 -1.35
-0.9 -0.45 -1.35
-0.75 -0.45 -1.35
-0.6 -0.45 -1.35
-0.45 -0.45 -1.35
-0.3 -0.45 -1.35
-0.15 -0.45 -1.35
-1.66533e-16 -0.45 -1.35
0.15 -0.45 -1.35
0.3 -0.45 -1.35
0.45 -0.45 -1.35
0.6 -0.45 -1.35
0.75 -0.45 -1.35
0.9 -0.45 -1.35
1.05 -0.45 -1.35
1.2 -0.45 -1.35
1.35 -0.45 -1.35
-1.5 -0.3 -1.35
-1.35 -0.3 -1.35
-1.2 -0.3 -1.35
-1.05 -0.3 -1.35
-0.9 -0.3 -1.35
-0.75 -0.3 -1.35
-0.6 -0.3 -1.35
-0.45 -0.3 -1.35
-0.3 -0.3 -1.35
-0.15 -0.3 -1.35
-1.66533e-16 -0.3 -1.35
0.15 -0.3 -1.35
0.3 -0.3 -1.35
0.45 -0.3 -1.35
0.6 -0.3 -1.35
0.75 -0.3 -1.35
0.9 -0.3 -1.35
1.05 -0.3 -1.35
1.2 -0.3 -1.35
1.35 -0.3 -1.35
-1.5 -0.15 -1.35
-1.35 -0.15 -1.35
-1.2 -0.15 -1.35
-1.05 -0.15 -1.35
-0.9 -0.15 -1.35
-0.75 -0.15 -1.35
-0.6 -0.15 -1.35
-0.45 -0.15 -1.35
-0.3 -0.15 -1.35
-0.15 -0.15 -1.35
-1.66533e-16 -0.15 -1.35
0.15 -0.15 -1.35
0.3 -0.15 -1.35
0.45 -0.15 -1.35
0.6 -0.15 -1.35
0.75 -0.15 -1.35
0.9 -0.15 -1.35
1.05 -0.15 -1.35
1.2 -0.15 -1.35
1.35 -0.15 -1.35
-1.5 -1.66533e-16 -1.35
-1.35 -1.66533e-16 -1.35
-1.2 -1.66533e-16 -1.35
-1.05 -1.66533e-16 -1.35
-0.9 -1.66533e-16 -1.35
[...]
POINT_DATA 8000
SCALARS Density double
LOOKUP_TABLE default
-1.13138
-1.17457
-1.21339
-1.24775
-1.27756
-1.30275
-1.32328
-1.33918
-1.35046
-1.35717
-1.35934
-1.35698
-1.35009
-1.33862
-1.32255
-1.30184
-1.27649
-1.24652
-1.21201
-1.17305
-1.17535
-1.21774
-1.2558
-1.28946
-1.31867
-1.34336
-1.36352
-1.37913
-1.39022
-1.39681
-1.39893
-1.39659
-1.38979
-1.37849
-1.36267
-1.34232
-1.31744
-1.28806
-1.25423
-1.21603
-1.21452
-1.2562
-1.29355
-1.32656
-1.35519
-1.37941
-1.39918
-1.41451
-1.4254
-1.43187
-1.43395
-1.43163
-1.42491
-1.41378
-1.39823
-1.37823
-1.35381
-1.32499
-1.29181
-1.2543
-1.24889
-1.28997
-1.32671
-1.35913
-1.38724
-1.411
-1.43041
-1.44547
-1.45617
-1.46252
-1.46455
-1.46225
-1.45562
-1.44466
-1.42936
-1.40971
-1.38572
-1.35741
-1.3248
-1.2879
-1.27847
-1.31906
-1.3553
-1.38722
-1.41487
-1.43823
-1.45732
-1.47212
-1.48264
-1.48888
-1.49087
-1.48859
-1.48205
-1.47124
-1.45617
-1.43683
-1.41323
-1.38536
-1.35324
-1.31684
-1.30328
-1.34351
-1.37934
-1.41087
-1.43814
-1.46116
-1.47996
-1.49454
-1.5049
-1.51104
-1.51299
-1.51072
-1.50426
-1.4936
-1.47874
-1.45967
-1.43639
-1.4089
-1.37718
-1.34118
-1.32336
-1.36334
-1.39889
-1.43011
-1.45708
-1.47983
-1.4984
-1.51279
-1.52301
-1.52907
-1.53098
-1.52873
-1.52234
-1.5118
-1.49711
-1.47826
-1.45525
-1.42806
-1.39664
-1.36094
-1.3388
-1.37861
-1.41396
-1.44497
-1.47172
-1.49427
-1.51266
-1.5269
-1.53702
-1.54301
-1.54489
-1.54266
-1.53632
-1.52588
-1.51132
-1.49265
-1.46985
-1.44288
-1.41169
-1.3762
-1.34967
-1.38939
-1.42462
-1.45548
-1.48209
-1.50451
-1.52277
-1.53691
-1.54695
-1.5529
-1.55476
-1.55253
-1.54624
-1.53586
-1.52141
-1.50286
-1.48021
-1.4534
-1.42237
-1.38703
-1.35605
-1.39574
-1.4309
-1.4617
-1.48823
-1.51056
-1.52876
-1.54284
-1.55283
-1.55875
-1.5606
-1.55838
-1.55211
-1.54178
-1.52739
-1.50893
-1.48636
-1.45965
-1.42873
-1.3935
-1.35799
-1.39769
-1.43285
-1.46363
-1.49015
-1.51246
-1.53063
-1.5447
-1.55468
-1.56058
-1.56242
-1.56021
-1.55395
-1.54365
-1.52928
-1.51086
-1.48833
-1.46167
-1.43081
-1.39563
-1.35552
-1.39526
-1.43048
-1.46131
-1.48786
-1.51021
-1.52841
-1.5425
-1.55249
-1.5584
-1.56025
-1.55804
-1.55178
-1.54146
-1.52709
-1.50865
-1.48612
-1.45946
-1.4286
-1.39345
-1.3486
-1.38846
-1.42378
-1.45472
-1.48138
-1.50382
-1.5221
-1.53624
-1.54628
-1.55222
-1.55408
-1.55186
-1.54557
-1.53522
-1.52081
-1.50231
-1.47973
-1.45301
-1.4221
-1.38691
-1.3372
-1.37723
-1.41274
-1.44386
-1.47069
-1.49328
-1.51169
-1.52593
-1.53604
-1.54202
-1.5439
-1.54167
-1.53534
-1.52493
-1.51042
-1.49183
-1.46912
-1.44228
-1.41125
-1.37598
-1.32127
-1.36156
-1.39734
-1.42872
-1.45579
-1.4786
-1.49718
-1.51157
-1.52177
-1.52781
-1.5297
-1.52745
-1.52107
-1.51056
-1.49593
-1.47717
-1.45427
-1.42723
-1.39602
-1.36056
-1.30075
-1.34141
-1.37755
-1.40928
-1.43667
-1.45976
-1.47857
-1.49313
-1.50346
-1.50956
-1.51147
-1.50919
-1.50274
-1.4921
-1.47729
-1.45831
-1.43516
-1.40784
-1.37633
-1.3406
-1.27561
-1.31676
-1.35337
-1.38555
-1.41333
-1.43676
-1.45584
-1.47061
-1.48107
-1.48725
-1.48918
-1.48686
-1.4803
-1.46951
-1.45449
-1.43524
-1.41176
-1.38406
-1.35216
-1.31603
-1.24589
-1.28762
-1.32481
-1.35752
-1.38577
-1.40959
-1.42898
-1.44396
-1.45457
-1.46083
-1.46276
-1.46039
-1.45372
-1.44275
-1.42748
-1.4079
-1.38403
-1.35587
-1.32347
-1.28682
-1.21162
-1.25405
-1.29191
-1.32522
-1.35399
-1.37822
-1.39793
-1.41315
-1.4239
-1.43022
-1.43216
-1.42972
-1.42293
-1.41175
-1.3962
-1.37625
-1.35193
-1.32324
-1.29024
-1.25296
-1.17288
-1.2161
-1.25468
-1.28864
-1.31795
-1.34262
-1.36265
-1.37808
-1.38895
-1.39533
-1.39725
-1.39474
-1.3878
-1.37641
-1.36056
-1.34022
-1.3154
-1.28612
-1.25245
-1.21444
-1.18729
-1.22952
-1.26748
-1.30107
-1.33022
-1.35489
-1.37503
-1.39065
-1.40175
-1.40836
-1.4105
-1.40817
-1.40137
-1.39008
-1.37428
-1.35396
-1.32912
-1.2998
-1.26605
-1.22796
-1.23047
-1.27203
-1.30932
-1.3423
-1.37091
-1.39513
-1.4149
-1.43025
-1.44115
-1.44765
-1.44973
-1.44743
-1.44071
-1.42959
-1.41404
-1.39406
-1.36965
-1.34085
-1.3077
-1.27026
-1.26889
-1.30984
-1.34653
-1.37895
-1.40705
-1.43083
-1.45025
-1.46532
-1.47604
-1.48241
-1.48445
-1.48216
-1.47554
-1.46458
-1.44928
-1.42963
-1.40564
-1.37734
-1.34475
-1.3079
-1.30258
-1.34302
-1.37919
-1.41109
-1.43873
-1.4621
-1.4812
-1.49601
-1.50654
-1.5128
-1.51479
-1.51252
-1.50599
-1.49519
-1.48013
-1.46079
-1.43719
-1.40933
-1.37724
-1.34091
-1.33156
-1.37159
-1.40732
-1.43879
-1.46603
-1.48904
-1.50784
-1.52241
-1.53277
-1.53893
-1.54088
-1.53863
-1.53218
-1.52153
-1.50668
-1.48763
-1.46437
-1.43691
-1.40524
-1.36935
-1.35586
-1.39558
-1.43097
-1.46209
-1.48899
-1.51171
-1.53024
-1.54461
-1.55482
-1.56088
-1.56279
-1.56056
-1.55419
-1.54367
-1.52901
-1.5102
-1.48724
-1.46011
-1.4288
-1.39325
-1.37555
-1.41505
-1.45018
-1.48104
-1.50768
-1.53015
-1.54847
-1.56267
-1.57276
-1.57874
-1.58061
-1.5784
-1.57209
-1.56169
-1.54719
-1.52858
-1.50586
-1.479
-1.44796
-1.41268
-1.3907
-1.43005
-1.46501
-1.49567
-1.52211
-1.5444
-1.56256
-1.57663
-1.58662
-1.59253
-1.59439
-1.59218
-1.58593
-1.57561
-1.56124
-1.5428
-1.52026
-1.49361
-1.46277
-1.42769
-1.40136
-1.44064
-1.47548
-1.50602
-1.53234
-1.5545
-1.57255
-1.58652
-1.59644
-1.60231
-1.60415
-1.60196
-1.59574
-1.58549
-1.57121
-1.55289
-1.53049
-1.50398
-1.4733
-1.43836
-1.40761
-1.44686
-1.48165
-1.51213
-1.53838
-1.56047
-1.57846
-1.59238
-1.60225
-1.6081
-1.60992
-1.60774
-1.60155
-1.59134
-1.57712
-1.55887
-1.53656
-1.51015
-1.47957
-1.44473
-1.40948
-1.44875
-1.48355
-1.51402
-1.54026
-1.56233
-1.58031
-1.59421
-1.60407
-1.60991
-1.61173
-1.60955
-1.60337
-1.59318
-1.57899
-1.56077
-1.53851
-1.51214
-1.48161
-1.44683
-1.40699
-1.44632
-1.48119
-1.51171
-1.53799
-1.5601
-1.5781
-1.59203
-1.60191
-1.60775
-1.60958
-1.60739
-1.60121
-1.59102
-1.57682
-1.55859
-1.53632
-1.50996
-1.47944
-1.44468
-1.40013
-1.43958
-1.47456
-1.5052
-1.53158
-1.55379
-1.57186
-1.58584
-1.59576
-1.60163
-1.60346
-1.60128
-1.59507
-1.58485
-1.5706
-1.55233
-1.53
-1.50359
-1.47302
-1.43824
-1.38887
-1.42851
-1.46367
-1.49448
-1.52103
-1.54338
-1.56157
-1.57565
-1.58563
-1.59154
-1.59339
-1.59119
-1.58494
-1.57466
-1.56034
-1.54196
-1.51953
-1.493
-1.46233
-1.42746
-1.37318
-1.41307
-1.4485
-1.47956
-1.50633
-1.52888
-1.54724
-1.56144
-1.57152
-1.57747
-1.57934
-1.57711
-1.57081
-1.56044
-1.54599
-1.52747
-1.50487
-1.47816
-1.44732
-1.41229
-1.35302
-1.39326
-1.42903
-1.46041
-1.48748
-1.51028
-1.52885
-1.54321
-1.55339
-1.55941
-1.56129
-1.55903
-1.55265
-1.54216
-1.52756
-1.50884
-1.486
-1.45904
-1.42794
-1.39267
-1.32838
-1.36906
-1.40525
-1.43704
-1.46446
-1.48757
-1.50638
-1.52092
-1.53123
-1.53731
-1.5392
-1.5369
-1.53043
-1.51979
-1.50498
-1.48601
-1.46288
-1.43559
-1.40414
-1.36853
-1.29927
-1.34049
-1.37719
-1.40944
-1.43728
-1.46073
-1.47981
-1.49455
-1.50499
-1.51113
-1.51302
-1.51067
-1.50408
-1.49327
-1.47822
-1.45895
-1.43547
-1.40777
-1.37589
-1.33983
-1.26574
-1.30757
-1.34485
-1.37763
-1.40591
-1.42973
-1.4491
-1.46404
-1.4746
-1.48081
-1.48269
-1.48026
-1.47354
-1.46253
-1.44722
-1.42761
-1.40372
-1.37555
-1.34315
-1.30654
-1.22784
-1.27034
-1.30825
-1.34158
-1.37034
-1.39453
-1.41418
-1.42931
-1.43998
-1.44623
-1.44809
-1.44558
-1.43871
-1.42748
-1.41188
-1.3919
-1.36756
-1.33887
-1.30588
-1.26865
-1.23919
-1.2804
-1.31744
-1.35023
-1.37871
-1.40282
-1.42254
-1.43784
-1.44873
-1.45522
-1.45732
-1.45503
-1.44835
-1.43727
-1.42178
-1.40189
-1.3776
-1.34895
-1.316
-1.27881
-1.28148
-1.32212
-1.35859
-1.39085
-1.41885
-1.44255
-1.46193
-1.47697
-1.48767
-1.49405
-1.4961
-1.49382
-1.48723
-1.47631
-1.46106
-1.44147
-1.41757
-1.38939
-1.35696
-1.32033
-1.31911
-1.35923
-1.39519
-1.42695
-1.4545
-1.47781
-1.49687
-1.51165
-1.52218
-1.52844
-1.53044
-1.52819
-1.52168
-1.51091
-1.49589
-1.47661
-1.45308
-1.42533
-1.39339
-1.35727
-1.35208
-1.39178
-1.42729
-1.45861
-1.48576
-1.50871
-1.52746
-1.54201
-1.55236
-1.55851
-1.56047
-1.55824
-1.55181
-1.5412
-1.52639
-1.50739
-1.48421
-1.45686
-1.42534
-1.38967
-1.38045
-1.4198
-1.45493
-1.48589
-1.51267
-1.53531
-1.55379
-1.56813
-1.57832
-1.58437
-1.58629
-1.58407
-1.57773
-1.56725
-1.55264
-1.5339
-1.51102
-1.48401
-1.45287
-1.41757
-1.40424
-1.44333
-1.47817
-1.50882
-1.53531
-1.55768
-1.57593
-1.59008
-1.60014
-1.6061
-1.60798
-1.60579
-1.59951
-1.58915
-1.57472
-1.55619
-1.53358
-1.50686
-1.47602
-1.44102
-1.42351
-1.46242
-1.49704
-1.52746
-1.55372
-1.57587
-1.59394
-1.60793
-1.61787
-1.62377
-1.62562
-1.62344
-1.61722
-1.60697
-1.59267
-1.57434
-1.55194
-1.52546
-1.49486
-1.4601
-1.43834
-1.47712
-1.5116
-1.54185
-1.56794
-1.58993
-1.60785
-1.62173
-1.63158
-1.63742
-1.63925
-1.63707
-1.63091
-1.62074
-1.60656
-1.58837
-1.56614
-1.53984
-1.50943
-1.47485
-1.44878
-1.4875
-1.52188
-1.55203
-1.57801
-1.59989
-1.61771
-1.6315
-1.64129
-1.64709
-1.6489
-1.64674
-1.64061
-1.6305
-1.61641
-1.59833
-1.57622
-1.55006
-1.51979
-1.48533
-1.45488
-1.49358
-1.52793
-1.55803
-1.58395
-1.60577
-1.62354
-1.63728
-1.64703
-1.65281
-1.65461
-1.65246
-1.64635
-1.63628
-1.62225
-1.60424
-1.58221
-1.55614
-1.52596
-1.4916
-1.45668
-1.49541
-1.52977
-1.55987
-1.58579
-1.60761
-1.62536
-1.63909
-1.64883
-1.6546
-1.6564
-1.65425
-1.64815
-1.6381
-1.62409
-1.60611
-1.58413
-1.5581
-1.52798
-1.49367
-1.45419
-1.493
-1.52743
-1.55758
-1.58355
-1.6054
-1.62318
-1.63694
-1.64669
-1.65246
-1.65427
-1.65212
-1.64601
-1.63596
-1.62194
-1.60396
-1.58197
-1.55595
-1.52583
-1.49155
-1.44741
-1.48634
-1.52089
-1.55116
-1.57723
-1.59916
-1.61701
-1.63082
-1.64061
-1.64641
-1.64822
-1.64606
-1.63994
-1.62986
-1.6158
-1.59777
-1.57574
-1.54967
-1.51951
-1.48521
-1.43632
-1.47544
-1.51016
-1.5406
-1.56682
-1.58889
-1.60686
-1.62075
-1.6306
-1.63643
-1.63826
-1.63608
-1.62993
-1.61979
-1.60566
-1.58754
-1.56541
-1.53924
-1.50899
-1.47462
-1.4209
-1.46027
-1.49524
-1.52591
-1.55234
-1.57459
-1.59271
-1.60671
-1.61665
-1.62252
-1.62436
-1.62216
-1.61595
-1.60572
-1.59149
-1.57323
-1.55095
-1.52463
-1.49423
-1.45971
-1.40113
-1.44082
-1.47611
-1.50707
-1.53377
-1.55625
-1.57455
-1.5887
-1.59873
-1.60465
-1.6065
-1.60427
-1.59798
-1.58765
-1.57326
-1.55483
-1.53234
-1.50579
-1.47517
-1.44044
-1.37701
-1.4171
-1.45277
-1.48408
-1.5111
-1.53385
-1.55236
-1.56668
-1.57681
-1.58279
-1.58464
-1.58237
-1.57599
-1.56551
-1.55094
-1.53228
-1.50953
-1.48269
-1.45177
-1.41675
-1.34855
-1.3891
-1.42522
-1.45695
-1.48433
-1.50738
-1.52613
-1.54062
-1.55086
-1.55689
-1.55874
-1.55641
-1.54992
-1.53928
-1.52448
-1.50555
-1.48248
-1.45529
-1.42399
-1.38858
-1.31578
-1.35687
-1.39349
-1.42567
-1.45344
-1.47681
-1.49581
-1.51046
-1.52082
-1.52689
-1.52872
-1.52631
-1.51969
-1.50886
-1.49382
-1.47458
-1.45114
-1.42354
-1.39179
-1.35592
-1.27875
-1.32042
-1.35758
-1.39024
-1.41841
-1.4421
-1.46133
-1.47616
-1.4866
-1.4927
-1.49449
-1.492
-1.48523
-1.47419
-1.45887
-1.43929
-1.41546
-1.38739
-1.35513
-1.31872
-1.28715
-1.32731
-1.36342
-1.3954
-1.42318
-1.44672
-1.46597
-1.48093
-1.49159
-1.49795
-1.5
-1.49776
-1.49122
-1.48037
-1.46523
-1.44579
-1.42208
-1.39412
-1.36199
-1.32573
-1.32849
-1.36816
-1.40378
-1.43529
-1.46265
-1.48582
-1.50477
-1.51949
-1.52997
-1.53622
-1.53822
-1.536
-1.52954
-1.51884
-1.50391
-1.48475
-1.46138
-1.43384
-1.40216
-1.36638
-1.36528
-1.40451
-1.43969
-1.47077
-1.49773
-1.52055
-1.53922
-1.5537
-1.56402
-1.57016
-1.57212
-1.56991
-1.56353
-1.55297
-1.53825
-1.51936
-1.49633
-1.46916
-1.4379
-1.40257
-1.39753
-1.4364
-1.47119
-1.50189
-1.5285
-1.551
-1.56939
-1.58367
-1.59382
-1.59986
-1.60178
-1.59959
-1.59328
-1.58287
-1.56834
-1.5497
-1.52697
-1.50015
-1.46926
-1.43431
-1.42527
-1.46384
-1.49832
-1.5287
-1.555
-1.57723
-1.59538
-1.60946
-1.61947
-1.62542
-1.6273
-1.62512
-1.61889
-1.6086
-1.59424
-1.57584
-1.55338
-1.52686
-1.49629
-1.46165
-1.44853
-1.48689
-1.52112
-1.55124
-1.57729
-1.59928
-1.61722
-1.63114
-1.64103
-1.64689
-1.64874
-1.64658
-1.64041
-1.63023
-1.61603
-1.59782
-1.57559
-1.54933
-1.51903
-1.48465
-1.46738
-1.50559
-1.53963
-1.56956
-1.59541
-1.61721
-1.63499
-1.64877
-1.65855
-1.66435
-1.66618
-1.66403
-1.65791
-1.64782
-1.63376
-1.61571
-1.59367
-1.56762
-1.53753
-1.50336
-1.48188
-1.52
-1.55392
-1.5837
-1.6094
-1.63106
-1.64872
-1.66239
-1.67209
-1.67784
-1.67965
-1.67751
-1.67144
-1.66143
-1.64747
-1.62955
-1.60766
-1.58177
-1.55185
-1.51783
-1.49208
-1.53015
-1.564
-1.59369
-1.6193
-1.64087
-1.65844
-1.67204
-1.68169
-1.6874
-1.68919
-1.68707
-1.68103
-1.67107
-1.65719
-1.63937
-1.61759
-1.59183
-1.56202
-1.52813
-1.49803
-1.5361
-1.56992
-1.59958
-1.62514
-1.64666
-1.66419
-1.67774
-1.68736
-1.69306
-1.69484
-1.69272
-1.6867
-1.67678
-1.66295
-1.6452
-1.6235
-1.59781
-1.56809
-1.53428
-1.49976
-1.53787
-1.57171
-1.60138
-1.62695
-1.64846
-1.66598
-1.67953
-1.68913
-1.69482
-1.69661
-1.69449
-1.68848
-1.67858
-1.66477
-1.64705
-1.62538
-1.59974
-1.57007
-1.53631
-1.49728
-1.53547
-1.56939
-1.59912
-1.62473
-1.64628
-1.66383
-1.6774
-1.68702
-1.69272
-1.6945
-1.69238
-1.68637
-1.67646
-1.66265
-1.64492
-1.62326
-1.59762
-1.56796
-1.53422
-1.49061
-1.52892
-1.56295
-1.59279
-1.6185
-1.64013
-1.65774
-1.67136
-1.68102
-1.68674
-1.68853
-1.68641
-1.68037
-1.67044
-1.65659
-1.63882
-1.61711
-1.59144
-1.56175
-1.528
-1.47971
-1.5182
-1.55241
-1.58241
-1.60826
-1.63002
-1.64773
-1.66142
-1.67113
-1.67688
-1.67868
-1.67654
-1.67048
-1.66049
-1.64658
-1.62873
-1.60694
-1.58117
-1.55141
-1.5176
-1.4646
-1.50332
-1.53775
-1.56796
-1.594
-1.61592
-1.63377
-1.64757
-1.65735
-1.66314
-1.66494
-1.66278
-1.65667
-1.6466
-1.63259
-1.61462
-1.5927
-1.5668
-1.5369
-1.50298
-1.44525
-1.48426
-1.51898
-1.54945
-1.57573
-1.59786
-1.61587
-1.62979
-1.63966
-1.64548
-1.64729
-1.6451
-1.63892
-1.62875
-1.6146
-1.59647
-1.57437
-1.54827
-1.51818
-1.48408
-1.42166
-1.46103
-1.49609
-1.52687
-1.55343
-1.5758
-1.59399
-1.60806
-1.61802
-1.62389
-1.6257
-1.62346
-1.61719
-1.60689
-1.59257
-1.57424
-1.5519
-1.52555
-1.4952
-1.46085
-1.39385
-1.43364
-1.46909
-1.50023
-1.52711
-1.54973
-1.56813
-1.58235
-1.59239
-1.59831
-1.6001
-1.59781
-1.59143
-1.58097
-1.56646
-1.54788
-1.52526
-1.49861
-1.46793
-1.43324
-1.36186
-1.40211
-1.43799
-1.46953
-1.49674
-1.51963
-1.53825
-1.55261
-1.56274
-1.56868
-1.57045
-1.56808
-1.56157
-1.55094
-1.5362
-1.51734
-1.4944
-1.46738
-1.43632
-1.40123
-1.32572
-1.36647
-1.40282
-1.43476
-1.46231
-1.48548
-1.50429
-1.51879
-1.52899
-1.53494
-1.53667
-1.53421
-1.52755
-1.51673
-1.50173
-1.48257
-1.45927
-1.43184
-1.40034
-1.36479
-1.33118
-1.3703
-1.40548
-1.43664
-1.46372
-1.48667
-1.50545
-1.52006
-1.53047
-1.53668
-1.53869
-1.5365
-1.53011
-1.51952
-1.50473
-1.48576
-1.46264
-1.43539
-1.40407
-1.36874
-1.37154
-1.41023
-1.44498
-1.47573
-1.50243
-1.52506
-1.54357
-1.55796
-1.56821
-1.57432
-1.57628
-1.5741
-1.56779
-1.55733
-1.54273
-1.52402
-1.5012
-1.47431
-1.44338
-1.40848
-1.40748
-1.44578
-1.48015
-1.51053
-1.53689
-1.5592
-1.57746
-1.59164
-1.60173
-1.60774
-1.60967
-1.6075
-1.60126
-1.59093
-1.57652
-1.55804
-1.53551
-1.50895
-1.47839
-1.44387
-1.43898
-1.47698
-1.51101
-1.54107
-1.56712
-1.58916
-1.60717
-1.62116
-1.63111
-1.63703
-1.63891
-1.63676
-1.63058
-1.62038
-1.60614
-1.58789
-1.56563
-1.53937
-1.50913
-1.47494
-1.46608
-1.50384
-1.5376
-1.56738
-1.59317
-1.61496
-1.63277
-1.64658
-1.6564
-1.66224
-1.66409
-1.66195
-1.65584
-1.64574
-1.63167
-1.61361
-1.59159
-1.56559
-1.53563
-1.50171
-1.48882
-1.5264
-1.55995
-1.58951
-1.61508
-1.63667
-1.65429
-1.66796
-1.67767
-1.68344
-1.68526
-1.68314
-1.67708
-1.66708
-1.65314
-1.63526
-1.61344
-1.58767
-1.55794
-1.52424
-1.50725
-1.5447
-1.57811
-1.60749
-1.63289
-1.65432
-1.6718
-1.68534
-1.69497
-1.70067
-1.70247
-1.70036
-1.69435
-1.68444
-1.67062
-1.65288
-1.63123
-1.60564
-1.57609
-1.54257
-1.52142
-1.5588
-1.59211
-1.62138
-1.64665
-1.66796
-1.68533
-1.69878
-1.70833
-1.71399
-1.71577
-1.71368
-1.70771
-1.69786
-1.68413
-1.66651
-1.64499
-1.61955
-1.59015
-1.55676
-1.53138
-1.56874
-1.60199
-1.63119
-1.65638
-1.67761
-1.69491
-1.7083
-1.7178
-1.72343
-1.7252
-1.72311
-1.71717
-1.70738
-1.69372
-1.67619
-1.65477
-1.62943
-1.60014
-1.56686
-1.53718
-1.57455
-1.60779
-1.63696
-1.66212
-1.68331
-1.70057
-1.71393
-1.7234
-1.72902
-1.73078
-1.7287
-1.72278
-1.71301
-1.6994
-1.68193
-1.66058
-1.63531
-1.6061
-1.57289
-1.53885
-1.57626
-1.60953
-1.63872
-1.66389
-1.68508
-1.70234
-1.71569
-1.72516
-1.73076
-1.73253
-1.73045
-1.72453
-1.71479
-1.7012
-1.68375
-1.66243
-1.63721
-1.60804
-1.57489
-1.5364
-1.57389
-1.60724
-1.63649
-1.6617
-1.68293
-1.70022
-1.71359
-1.72307
-1.72869
-1.73045
-1.72837
-1.72246
-1.7127
-1.69911
-1.68166
-1.66034
-1.63512
-1.60597
-1.57284
-1.52984
-1.56745
-1.60091
-1.63027
-1.65557
-1.67688
-1.69422
-1.70764
-1.71715
-1.72279
-1.72456
-1.72247
-1.71654
-1.70676
-1.69314
-1.67565
-1.6543
-1.62905
-1.59987
-1.56673
-1.51916
-1.55694
-1.59056
-1.62006
-1.6455
-1.66692
-1.68435
-1.69784
-1.7074
-1.71306
-1.71484
-1.71274
-1.70677
-1.69695
-1.68326
-1.66571
-1.64429
-1.61896
-1.58972
-1.55653
-1.50436
-1.54236
-1.57618
-1.60588
-1.63149
-1.65305
-1.67061
-1.68418
-1.69381
-1.6995
-1.70128
-1.69916
-1.69315
-1.68325
-1.66948
-1.65182
-1.63028
-1.60484
-1.57548
-1.54219
-1.48544
-1.5237
-1.55778
-1.58771
-1.61353
-1.63527
-1.65297
-1.66666
-1.67635
-1.68208
-1.68386
-1.6817
-1.67563
-1.66564
-1.65174
-1.63395
-1.61224
-1.58663
-1.55711
-1.52367
-1.4624
-1.50097
-1.53535
-1.56556
-1.59162
-1.61357
-1.63144
-1.64524
-1.65501
-1.66077
-1.66255
-1.66035
-1.65419
-1.64408
-1.63003
-1.61205
-1.59015
-1.56432
-1.53458
-1.50092
-1.43526
-1.47419
-1.50891
-1.53943
-1.56577
-1.58794
-1.60598
-1.61991
-1.62976
-1.63555
-1.6373
-1.63504
-1.62878
-1.61853
-1.6043
-1.58611
-1.56395
-1.53786
-1.50783
-1.4739
-1.40404
-1.44338
-1.47848
-1.50933
-1.53595
-1.55836
-1.57657
-1.59062
-1.60054
-1.60634
-1.60807
-1.60573
-1.59935
-1.58894
-1.5745
-1.55606
-1.53362
-1.50721
-1.47685
-1.44258
-1.36879
-1.40856
-1.44406
-1.47526
-1.50218
-1.52481
-1.54319
-1.55735
-1.56731
-1.57312
-1.57479
-1.57236
-1.56584
-1.55525
-1.54058
-1.52186
-1.49911
-1.47235
-1.44161
-1.40693
-1.37123
-1.40934
-1.44362
-1.47397
-1.50036
-1.52273
-1.54104
-1.55529
-1.56545
-1.57151
-1.57347
-1.57134
-1.5651
-1.55477
-1.54035
-1.52186
-1.49932
-1.47277
-1.44225
-1.40782
-1.4106
-1.44833
-1.48222
-1.51222
-1.53828
-1.56036
-1.57844
-1.59249
-1.6025
-1.60847
-1.61039
-1.60826
-1.60209
-1.59188
-1.57763
-1.55936
-1.53709
-1.51085
-1.48067
-1.44662
-1.44568
-1.48308
-1.51663
-1.54631
-1.57206
-1.59387
-1.61172
-1.62558
-1.63546
-1.64134
-1.64322
-1.6411
-1.635
-1.62489
-1.61081
-1.59275
-1.57073
-1.54478
-1.51493
-1.48121
-1.47645
-1.51357
-1.54685
-1.57624
-1.60173
-1.62329
-1.64093
-1.65462
-1.66436
-1.67016
-1.67201
-1.66991
-1.66386
-1.65387
-1.63993
-1.62207
-1.60029
-1.5746
-1.54503
-1.51159
-1.50293
-1.53984
-1.57289
-1.60204
-1.6273
-1.64865
-1.6661
-1.67964
-1.68927
-1.695
-1.69681
-1.69472
-1.68873
-1.67884
-1.66505
-1.64736
-1.62578
-1.60032
-1.57099
-1.5378
-1.52515
-1.56192
-1.59478
-1.62375
-1.64882
-1.67
-1.68729
-1.7007
-1.71023
-1.71589
-1.71768
-1.7156
-1.70966
-1.69985
-1.68618
-1.66865
-1.64725
-1.62199
-1.59286
-1.55985
-1.54316
-1.57983
-1.61257
-1.64139
-1.66632
-1.68736
-1.70452
-1.71783
-1.72728
-1.73289
-1.73466
-1.73259
-1.72669
-1.71696
-1.70339
-1.68599
-1.66474
-1.63963
-1.61066
-1.57781
-1.55701
-1.59363
-1.62629
-1.65501
-1.67983
-1.70077
-1.71784
-1.73107
-1.74046
-1.74603
-1.74778
-1.74573
-1.73986
-1.73019
-1.71671
-1.6994
-1.67827
-1.65329
-1.62445
-1.59172
-1.56674
-1.60335
-1.63597
-1.66464
-1.6894
-1.71026
-1.72727
-1.74045
-1.7498
-1.75534
-1.75709
-1.75504
-1.7492
-1.73957
-1.72615
-1.70893
-1.68788
-1.663
-1.63425
-1.60162
-1.5724
-1.60903
-1.64165
-1.6703
-1.69503
-1.71587
-1.73285
-1.746
-1.75532
-1.76085
-1.76259
-1.76055
-1.75473
-1.74514
-1.73175
-1.71458
-1.6936
-1.66878
-1.6401
-1.60753
-1.57402
-1.61069
-1.64335
-1.67203
-1.69677
-1.71761
-1.73459
-1.74773
-1.75706
-1.76258
-1.76432
-1.76228
-1.75647
-1.74689
-1.73353
-1.71638
-1.69542
-1.67064
-1.64201
-1.60949
-1.57161
-1.60836
-1.64109
-1.66983
-1.69462
-1.7155
-1.73251
-1.74567
-1.755
-1.76054
-1.76228
-1.76024
-1.75442
-1.74484
-1.73147
-1.71432
-1.69337
-1.6686
-1.63998
-1.60748
-1.56517
-1.60205