# vtk DataFile Version 3.0
vtk output
ASCII
DATASET STRUCTURED_GRID
DIMENSIONS 20 20 20
POINTS 8000 double
-1.5 -1.5 -1.5
-1.35 -1.5 -1.5
-1.2 -1.5 -1.5
-1.05 -1.5 -1.5
-0.9 -1.5 -1.5
-0.75 -1.5 -1.5
-0.6 -1.5 -1.5
-0.45 -1.5 -1.5
-0.3 -1.5 -1.5
-0.15 -1.5 -1.5
-1.66533e-16 -1.5 -1.5
0.15 -1.5 -1.5
0.3 -1.5 -1.5
0.45 -1.5 -1.5
0.6 -1.5 -1.5
0.75 -1.5 -1.5
0.9 -1.5 -1.5
1.05 -1.5 -1.5
1.2 -1.5 -1.5
1.35 -1.5 -1.5
-1.5 -1.35 -1.5
-1.35 -1.35 -1.5
-1.2 -1.35 -1.5
-1.05 -1.35 -1.5
-0.9 -1.35 -1.5
-0.75 -1.35 -1.5
-0.6 -1.35 -1.5
-0.45 -1.35 -1.5
-0.3 -1.35 -1.5
-0.15 -1.35 -1.5
-1.66533e-16 -1.35 -1.5
0.15 -1.35 -1.5
0.3 -1.35 -1.5
0.45 -1.35 -1.5
0.6 -1.35 -1.5
0.75 -1.35 -1.5
0.9 -1.35 -1.5
1.05 -1.35 -1.5
1.2 -1.35 -1.5
1.35 -1.35 -1.5
-1.5 -1.2 -1.5
-1.35 -1.2 -1.5
-1.2 -1.2 -1.5
-1.05 -1.2 -1.5
-0.9 -1.2 -1.5
-0.75 -1.2 -1.5
-0.6 -1.2 -1.5
-0.45 -1.2 -1.5
-0.3 -1.2 -1.5
-0.15 -1.2 -1.5
-1.66533e-16 -1.2 -1.5
0.15 -1.2 -1.5
0.3 -1.2 -1.5
0.45 -1.2 -1.5
0.6 -1.2 -1.5
0.75 -1.2 -1.5
0.9 -1.2 -1.5
1.05 -1.2 -1.5
1.2 -1.2 -1.5
1.35 -1.2 -1.5
-1.5 -1.05 -1.5
-1.35 -1.05 -1.5
-1.2 -1.05 -1.5
-1.05 -1.05 -1.5
-0.9 -1.05 -1.5
-0.75 -1.05 -1.5
-0.6 -1.05 -1.5
-0.45 -1.05 -1.5
-0.3 -1.05 -1.5
-0.15 -1.05 -1.5
-1.66533e-16 -1.05 -1.5
0.15 -1.05 -1.5
0.3 -1.05 -1.5
0.45 -1.05 -1.5
0.6 -1.05 -1.5
0.75 -1.05 -1.5
0.9 -1.05 -1.5
1.05 -1.05 -1.5
1.2 -1.05 -1.5
1.35 -1.05 -1.5
-1.5 -0.9 -1.5
-1.35 -0.9 -1.5
-1.2 -0.9 -1.5
-1.05 -0.9 -1.5
-0.9 -0.9 -1.5
-0.75 -0.9 -1.5
-0.6 -0.9 -1.5
-0.45 -0.9 -1.5
-0.3 -0.9 -1.5
-0.15 -0.9 -1.5
-1.66533e-16 -0.9 -1.5
0.15 -0.9 -1.5
0.3 -0.9 -1.5
0.45 -0.9 -1.5
0.6 -0.9 -1.5
0.75 -0.9 -1.5
0.9 -0.9 -1.5
1.05 -0.9 -1.5
1.2 -0.9 -1.5
1.35 -0.9 -1.5
-1.5 -0.75 -1.5
-1.35 -0.75 -1.5
-1.2 -0.75 -1.5
-1.05 -0.75 -1.5
-0.9 -0.75 -1.5
-0.75 -0.75 -1.5
-0.6 -0.75 -1.5
-0.45 -0.75 -1.5
-0.3 -0.75 -1.5
-0.15 -0.75 -1.5
-1.66533e-16 -0.75 -1.5
0.15 -0.75 -1.5
0.3 -0.75 -1.5
0.45 -0.75 -1.5
0.6 -0.75 -1.5
0.75 -0.75 -1.5
0.9 -0.75 -1.5
1.05 -0.75 -1.5
1.2 -0.75 -1.5
1.35 -0.75 -1.5
-1.5 -0.6 -1.5
-1.35 -0.6 -1.5
-1.2 -0.6 -1.5
-1.05 -0.6 -1.5
-0.9 -0.6 -1.5
-0.75 -0.6 -1.5
-0.6 -0.6 -1.5
-0.45 -0.6 -1.5
-0.3 -0.6 -1.5
-0.15 -0.6 -1.5
-1.66533e-16 -0.6 -1.5
0.15 -0.6 -1.5
0.3 -0.6 -1.5
0.45 -0.6 -1.5
0.6 -0.6 -1.5
0.75 -0.6 -1.5
0.9 -0.6 -1.5
1.05 -0.6 -1.5
1.2 -0.6 -1.5
1.35 -0.6 -1.5
-1.5 -0.45 -1.5
-1.35 -0.45 -1.5
-1.2 -0.45 -1.5
-1.05 -0.45 -1.5
-0.9 -0.45 -1.5
-0.75 -0.45 -1.5
-0.6 -0.45 -1.5
-0.45 -0.45 -1.5
-0.3 -0.45 -1.5
-0.15 -0.45 -1.5
-1.66533e-16 -0.45 -1.5
0.15 -0.45 -1.5
0.3 -0.45 -1.5
0.45 -0.45 -1.5
0.6 -0.45 -1.5
0.75 -0.45 -1.5
0.9 -0.45 -1.5
1.05 -0.45 -1.5
1.2 -0.45 -1.5
1.35 -0.45 -1.5
-1.5 -0.3 -1.5
-1.35 -0.3 -1.5
-1.2 -0.3 -1.5
-1.05 -0.3 -1.5
-0.9 -0.3 -1.5
-0.75 -0.3 -1.5
-0.6 -0.3 -1.5
-0.45 -0.3 -1.5
-0.3 -0.3 -1.5
-0.15 -0.3 -1.5
-1.66533e-16 -0.3 -1.5
0.15 -0.3 -1.5
0.3 -0.3 -1.5
0.45 -0.3 -1.5
0.6 -0.3 -1.5
0.75 -0.3 -1.5
0.9 -0.3 -1.5
1.05 -0.3 -1.5
1.2 -0.3 -1.5
1.35 -0.3 -1.5
-1.5 -0.15 -1.5
-1.35 -0.15 -1.5
-1.2 -0.15 -1.5
-1.05 -0.15 -1.5
-0.9 -0.15 -1.5
-0.75 -0.15 -1.5
-0.6 -0.15 -1.5
-0.45 -0.15 -1.5
-0.3 -0.15 -1.5
-0.15 -0.15 -1.5
-1.66533e-16 -0.15 -1.5
0.15 -0.15 -1.5
0.3 -0.15 -1.5
0.45 -0.15 -1.5
0.6 -0.15 -1.5
0.75 -0.15 -1.5
0.9 -0.15 -1.5
1.05 -0.15 -1.5
1.2 -0.15 -1.5
1.35 -0.15 -1.5
-1.5 -1.66533e-16 -1.5
-1.35 -1.66533e-16 -1.5
-1.2 -1.66533e-16 -1.5
-1.05 -1.66533e-16 -1.5
-0.9 -1.66533e-16 -1.5
-0.75 -1.66533e-16 -1.5
-0.6 -1.66533e-16 -1.5
-0.45 -1.66533e-16 -1.5
-0.3 -1.66533e-16 -1.5
-0.15 -1.66533e-16 -1.5
-1.66533e-16 -1.66533e-16 -1.5
0.15 -1.66533e-16 -1.5
0.3 -1.66533e-16 -1.5
0.45 -1.66533e-16 -1.5
0.6 -1.66533e-16 -1.5
0.75 -1.66533e-16 -1.5
0.9 -1.66533e-16 -1.5
1.05 -1.66533e-16 -1.5
1.2 -1.66533e-16 -1.5
1.35 -1.66533e-16 -1.5
-1.5 0.15 -1.5
-1.35 0.15 -1.5
-1.2 0.15 -1.5
-1.05 0.15 -1.5
-0.9 0.15 -1.5
-0.75 0.15 -1.5
-0.6 0.15 -1.5
-0.45 0.15 -1.5
-0.3 0.15 -1.5
-0.15 0.15 -1.5
-1.66533e-16 0.15 -1.5
0.15 0.15 -1.5
0.3 0.15 -1.5
0.45 0.15 -1.5
0.6 0.15 -1.5
0.75 0.15 -1.5
0.9 0.15 -1.5
1.05 0.15 -1.5
1.2 0.15 -1.5
1.35 0.15 -1.5
-1.5 0.3 -1.5
-1.35 0.3 -1.5
-1.2 0.3 -1.5
-1.05 0.3 -1.5
-0.9 0.3 -1.5
-0.75 0.3 -1.5
-0.6 0.3 -1.5
-0.45 0.3 -1.5
-0.3 0.3 -1.5
-0.15 0.3 -1.5
-1.66533e-16 0.3 -1.5
0.15 0.3 -1.5
0.3 0.3 -1.5
0.45 0.3 -1.5
0.6 0.3 -1.5
0.75 0.3 -1.5
0.9 0.3 -1.5
1.05 0.3 -1.5
1.2 0.3 -1.5
1.35 0.3 -1.5
-1.5 0.45 -1.5
-1.35 0.45 -1.5
-1.2 0.45 -1.5
-1.05 0.45 -1.5
-0.9 0.45 -1.5
-0.75 0.45 -1.5
-0.6 0.45 -1.5
-0.45 0.45 -1.5
-0.3 0.45 -1.5
-0.15 0.45 -1.5
-1.66533e-16 0.45 -1.5
0.15 0.45 -1.5
0.3 0.45 -1.5
0.45 0.45 -1.5
0.6 0.45 -1.5
0.75 0.45 -1.5
0.9 0.45 -1.5
1.05 0.45 -1.5
1.2 0.45 -1.5
1.35 0.45 -1.5
-1.5 0.6 -1.5
-1.35 0.6 -1.5
-1.2 0.6 -1.5
-1.05 0.6 -1.5
-0.9 0.6 -1.5
-0.75 0.6 -1.5
-0.6 0.6 -1.5
-0.45 0.6 -1.5
-0.3 0.6 -1.5
-0.15 0.6 -1.5
-1.66533e-16 0.6 -1.5
0.15 0.6 -1.5
0.3 0.6 -1.5
0.45 0.6 -1.5
0.6 0.6 -1.5
0.75 0.6 -1.5
0.9 0.6 -1.5
1.05 0.6 -1.5
1.2 0.6 -1.5
1.35 0.6 -1.5
-1.5 0.75 -1.5
-1.35 0.75 -1.5
-1.2 0.75 -1.5
-1.05 0.75 -1.5
-0.9 0.75 -1.5
-0.75 0.75 -1.5
-0.6 0.75 -1.5
-0.45 0.75 -1.5
-0.3 0.75 -1.5
-0.15 0.75 -1.5
-1.66533e-16 0.75 -1.5
0.15 0.75 -1.5
0.3 0.75 -1.5
0.45 0.75 -1.5
0.6 0.75 -1.5
0.75 0.75 -1.5
0.9 0.75 -1.5
1.05 0.75 -1.5
1.2 0.75 -1.5
1.35 0.75 -1.5
-1.5 0.9 -1.5
-1.35 0.9 -1.5
-1.2 0.9 -1.5
-1.05 0.9 -1.5
-0.9 0.9 -1.5
-0.75 0.9 -1.5
-0.6 0.9 -1.5
-0.45 0.9 -1.5
-0.3 0.9 -1.5
-0.15 0.9 -1.5
-1.66533e-16 0.9 -1.5
0.15 0.9 -1.5
0.3 0.9 -1.5
0.45 0.9 -1.5
0.6 0.9 -1.5
0.75 0.9 -1.5
0.9 0.9 -1.5
1.05 0.9 -1.5
1.2 0.9 -1.5
1.35 0.9 -1.5
-1.5 1.05 -1.5
-1.35 1.05 -1.5
-1.2 1.05 -1.5
-1.05 1.05 -1.5
-0.9 1.05 -1.5
-0.75 1.05 -1.5
-0.6 1.05 -1.5
-0.45 1.05 -1.5
-0.3 1.05 -1.5
-0.15 1.05 -1.5
-1.66533e-16 1.05 -1.5
0.15 1.05 -1.5
0.3 1.05 -1.5
0.45 1.05 -1.5
0.6 1.05 -1.5
0.75 1.05 -1.5
0.9 1.05 -1.5
1.05 1.05 -1.5
1.2 1.05 -1.5
1.35 1.05 -1.5
-1.5 1.2 -1.5
-1.35 1.2 -1.5
-1.2 1.2 -1.5
-1.05 1.2 -1.5
-0.9 1.2 -1.5
-0.75 1.2 -1.5
-0.6 1.2 -1.5
-0.45 1.2 -1.5
-0.3 1.2 -1.5
-0.15 1.2 -1.5
-1.66533e-16 1.2 -1.5
0.15 1.2 -1.5
0.3 1.2 -1.5
0.45 1.2 -1.5
0.6 1.2 -1.5
0.75 1.2 -1.5
0.9 1.2 -1.5
1.05 1.2 -1.5
1.2 1.2 -1.5
1.35 1.2 -1.5
-1.5 1.35 -1.5
-1.35 1.35 -1.5
-1.2 1.35 -1.5
-1.05 1.35 -1.5
-0.9 1.35 -1.5
-0.75 1.35 -1.5
-0.6 1.35 -1.5
-0.45 1.35 -1.5
-0.3 1.35 -1.5
-0.15 1.35 -1.5
-1.66533e-16 1.35 -1.5
0.15 1.35 -1.5
0.3 1.35 -1.5
0.45 1.35 -1.5
0.6 1.35 -1.5
0.75 1.35 -1.5
0.9 1.35 -1.5
1.05 1.35 -1.5
1.2 1.35 -1.5
1.35 1.35 -1.5
-1.5 -1.5 -1.35
-1.35 -1.5 -1.35
-1.2 -1.5 -1.35
-1.05 -1.5 -1.35
-0.9 -1.5 -1.35
-0.75 -1.5 -1.35
-0.6 -1.5 -1.35
-0.45 -1.5 -1.35
-0.3 -1.5 -1.35
-0.15 -1.5 -1.35
-1.66533e-16 -1.5 -1.35
0.15 -1.5 -1.35
0.3 -1.5 -1.35
0.45 -1.5 -1.35
0.6 -1.5 -1.35
0.75 -1.5 -1.35
0.9 -1.5 -1.35
1.05 -1.5 -1.35
1.2 -1.5 -1.35
1.35 -1.5 -1.35
-1.5 -1.35 -1.35
-1.35 -1.35 -1.35
-1.2 -1.35 -1.35
-1.05 -1.35 -1.35
-0.9 -1.35 -1.35
-0.75 -1.35 -1.35
-0.6 -1.35 -1.35
-0.45 -1.35 -1.35
-0.3 -1.35 -1.35
-0.15 -1.35 -1.35
-1.66533e-16 -1.35 -1.35
0.15 -1.35 -1.35
0.3 -1.35 -1.35
0.45 -1.35 -1.35
0.6 -1.35 -1.35
0.75 -1.35 -1.35
0.9 -1.35 -1.35
1.05 -1.35 -1.35
1.2 -1.35 -1.35
1.35 -1.35 -1.35
-1.5 -1.2 -1.35
-1.35 -1.2 -1.35
-1.2 -1.2 -1.35
-1.05 -1.2 -1.35
-0.9 -1.2 -1.35
-0.75 -1.2 -1.35
-0.6 -1.2 -1.35
-0.45 -1.2 -1.35
-0.3 -1.2 -1.35
-0.15 -1.2 -1.35
-1.66533e-16 -1.2 -1.35
0.15 -1.2 -1.35
0.3 -1.2 -1.35
0.45 -1.2 -1.35
0.6 -1.2 -1.35
0.75 -1.2 -1.35
0.9 -1.2 -1.35
1.05 -1.2 -1.35
1.2 -1.2 -1.35
1.35 -1.2 -1.35
-1.5 -1.05 -1.35
-1.35 -1.05 -1.35
-1.2 -1.05 -1.35
-1.05 -1.05 -1.35
-0.9 -1.05 -1.35
-0.75 -1.05 -1.35
-0.6 -1.05 -1.35
-0.45 -1.05 -1.35
-0.3 -1.05 -1.35
-0.15 -1.05 -1.35
-1.66533e-16 -1.05 -1.35
0.15 -1.05 -1.35
0.3 -1.05 -1.35
0.45 -1.05 -1.35
0.6 -1.05 -1.35
0.75 -1.05 -1.35
0.9 -1.05 -1.35
1.05 -1.05 -1.35
1.2 -1.05 -1.35
1.35 -1.05 -1.35
-1.5 -0.9 -1.35
-1.35 -0.9 -1.35
-1.2 -0.9 -1.35
-1.05 -0.9 -1.35
-0.9 -0.9 -1.35
-0.75 -0.9 -1.35
-0.6 -0.9 -1.35
-0.45 -0.9 -1.35
-0.3 -0.9 -1.35
-0.15 -0.9 -1.35
-1.66533e-16 -0.9 -1.35
0.15 -0.9 -1.35
0.3 -0.9 -1.35
0.45 -0.9 -1.35
0.6 -0.9 -1.35
0.75 -0.9 -1.35
0.9 -0.9 -1.35
1.05 -0.9 -1.35
1.2 -0.9 -1.35
1.35 -0.9 -1.35
-1.5 -0.75 -1.35
-1.35 -0.75 -1.35
-1.2 -0.75 -1.35
-1.05 -0.75 -1.35
-0.9 -0.75 -1.35
-0.75 -0.75 -1.35
-0.6 -0.75 -1.35
-0.45 -0.75 -1.35
-0.3 -0.75 -1.35
-0.15 -0.75 -1.35
-1.66533e-16 -0.75 -1.35
0.15 -0.75 -1.35
0.3 -0.75 -1.35
0.45 -0.75 -1.35
0.6 -0.75 -1.35
0.75 -0.75 -1.35
0.9 -0.75 -1.35
1.05 -0.75 -1.35
1.2 -0.75 -1.35
1.35 -0.75 -1.35
-1.5 -0.6 -1.35
-1.35 -0.6 -1.35
-1.2 -0.6 -1.35
-1.05 -0.6 -1.35
-0.9 -0.6 -1.35
-0.75 -0.6 -1.35
-0.6 -0.6 -1.35
-0.45 -0.6 -1.35
-0.3 -0.6 -1.35
-0.15 -0.6 -1.35
-1.66533e-16 -0.6 -1.35
0.15 -0.6 -1.35
0.3 -0.6 -1.35
0.45 -0.6 -1.35
0.6 -0.6 -1.35
0.75 -0.6 -1.35
0.9 -0.6 -1.35
1.05 -0.6 -1.35
1.2 -0.6 -1.35
1.35 -0.6 -1.35
-1.5 -0.45 -1.35
-1.35 -0.45 -1.35
-1.2 -0.45 -1.35
-1.05 -0.45 -1.35
-0.9 -0.45 -1.35
-0.75 -0.45 -1.35
-0.6 -0.45 -1.35
-0.45 -0.45 -1.35
-0.3 -0.45 -1.35
-0.15 -0.45 -1.35
-1.66533e-16 -0.45 -1.35
0.15 -0.45 -1.35
0.3 -0.45 -1.35
0.45 -0.45 -1.35
0.6 -0.45 -1.35
0.75 -0.45 -1.35
0.9 -0.45 -1.35
1.05 -0.45 -1.35
1.2 -0.45 -1.35
1.35 -0.45 -1.35
-1.5 -0.3 -1.35
-1.35 -0.3 -1.35
-1.2 -0.3 -1.35
-1.05 -0.3 -1.35
-0.9 -0.3 -1.35
-0.75 -0.3 -1.35
-0.6 -0.3 -1.35
-0.45 -0.3 -1.35
-0.3 -0.3 -1.35
-0.15 -0.3 -1.35
-1.66533e-16 -0.3 -1.35
0.15 -0.3 -1.35
0.3 -0.3 -1.35
0.45 -0.3 -1.35
0.6 -0.3 -1.35
0.75 -0.3 -1.35
0.9 -0.3 -1.35
1.05 -0.3 -1.35
1.2 -0.3 -1.35
1.35 -0.3 -1.35
-1.5 -0.15 -1.35
-1.35 -0.15 -1.35
-1.2 -0.15 -1.35
-1.05 -0.15 -1.35
-0.9 -0.15 -1.35
-0.75 -0.15 -1.35
-0.6 -0.15 -1.35
-0.45 -0.15 -1.35
-0.3 -0.15 -1.35
-0.15 -0.15 -1.35
-1.66533e-16 -0.15 -1.35
0.15 -0.15 -1.35
0.3 -0.15 -1.35
0.45 -0.15 -1.35
0.6 -0.15 -1.35
0.75 -0.15 -1.35
0.9 -0.15 -1.35
1.05 -0.15 -1.35
1.2 -0.15 -1.35
1.35 -0.15 -1.35
-1.5 -1.66533e-16 -1.35
-1.35 -1.66533e-16 -1.35
-1.2 -1.66533e-16 -1.35
-1.05 -1.66533e-16 -1.35
-0.9 -1.66533e-16 -1.35
[...]
POINT_DATA 8000
SCALARS Density double
LOOKUP_TABLE default
44.2121
40.157
36.6333
33.6069
31.0464
28.923
27.2116
25.8906
24.9423
24.3537
24.1162
24.2264
24.6855
25.5001
26.6812
28.245
30.2115
32.605
35.4533
38.787
40.1556
36.233
32.832
29.9175
27.4571
25.4212
23.7836
22.5218
21.6175
21.0569
20.8313
20.9367
21.3746
22.1516
23.2795
24.7749
26.6587
28.9563
31.6962
34.9104
36.6305
32.8306
29.5434
26.733
24.3658
22.4115
20.8429
19.6366
18.7736
18.2396
18.0251
18.1262
18.5443
19.2862
20.3642
21.7956
23.6022
25.8102
28.4493
31.5524
33.6028
29.9148
26.7316
24.0165
21.735
19.8557
18.3507
17.1957
16.3709
15.8614
15.6574
15.7546
16.1544
16.864
17.8961
19.2684
21.0039
23.1296
25.6761
28.6775
31.0409
27.4531
24.3632
21.7337
19.5293
17.7178
16.2702
15.1617
14.3716
13.8845
13.69
13.7838
14.1672
14.8475
15.8379
17.1569
18.8281
20.8795
23.3427
26.2528
28.9163
25.4159
22.4077
19.8532
17.7166
15.9646
14.5678
13.5003
12.7409
12.2736
12.0877
12.1786
12.5474
13.2019
14.1554
15.4273
17.0418
19.0278
21.418
24.248
27.2037
23.7771
20.8379
18.347
16.2678
14.5666
13.213
12.1805
11.4474
10.997
10.8185
10.9068
11.2632
11.8956
12.8177
14.0493
15.6155
17.5459
19.874
22.6363
25.8815
22.5141
19.6304
17.1908
15.1581
13.498
12.1793
11.1753
10.4636
10.027
9.85441
9.94059
10.2869
10.9011
11.7976
12.9965
14.5235
16.409
18.687
21.3947
24.932
21.6087
18.7663
16.3649
14.367
12.7375
11.4452
10.4625
9.76672
9.34051
9.17228
9.25676
9.59526
10.1958
11.0729
12.2471
13.7448
15.5966
17.8373
20.5045
24.3422
21.047
18.2311
15.8543
13.8787
12.2691
10.9938
10.0249
9.33946
8.91984
8.7543
8.83748
9.17072
9.76212
10.6264
11.7846
13.2632
15.0934
17.3102
19.9516
24.1036
20.8202
18.0155
15.6492
13.6832
12.0822
10.8141
9.85121
9.17017
8.75325
8.58863
8.67093
9.00152
9.58862
10.4471
11.5982
13.0686
14.8895
17.0963
19.7271
24.2126
20.9245
18.1154
15.7453
13.7759
12.1719
10.9013
9.93631
9.25358
8.83537
8.66987
8.75174
9.08242
9.67021
10.5301
11.6832
13.1563
14.9808
17.1917
19.8271
24.6706
21.3612
18.5324
16.144
14.1581
12.5396
11.2567
10.2815
9.59097
9.1675
8.99936
9.08132
9.41491
10.0085
10.8769
12.0414
13.5283
15.3689
17.598
20.2535
25.4839
22.1371
19.2732
16.8524
14.8373
13.1929
11.8878
10.8946
10.1903
9.75775
9.58532
9.66798
10.0073
10.6117
11.4959
12.6807
14.1924
16.0616
18.3228
21.0132
26.6639
23.2638
20.35
17.8832
15.8265
14.1453
12.8087
11.7898
11.0662
10.6209
10.4427
10.5267
10.8746
11.4947
12.4015
13.6156
15.1624
17.0722
19.3787
22.1186
28.2264
24.7579
21.7801
19.2544
17.1442
15.4159
14.0391
12.9875
12.2393
11.7779
11.5925
11.6786
12.0379
12.6784
13.6144
14.8658
16.4576
18.4192
20.7836
23.5869
30.1917
26.6405
23.5855
20.9887
18.8142
17.0292
15.6041
14.5133
13.7357
13.2553
13.0617
13.1505
13.5236
14.1889
15.16
16.4564
18.1023
20.1262
22.5602
25.4395
32.584
28.9368
25.7923
23.1131
20.8643
19.014
17.5333
16.3975
15.5863
15.0842
14.8814
14.9738
15.3631
16.0569
17.0686
18.4169
20.125
22.2207
24.735
27.7023
35.431
31.6755
28.4301
25.6584
23.3264
21.4029
19.8602
18.6743
17.8258
17.2998
17.087
17.1835
17.591
18.3169
19.374
20.7801
22.5579
24.7338
27.3383
30.4043
38.7634
34.8884
31.5319
28.6585
26.2352
24.2317
22.6212
21.3809
20.4918
19.9401
19.7166
19.8178
20.2453
21.0062
22.1128
23.5822
25.4361
27.7
30.4032
33.5779
40.0857
36.1657
32.7671
29.8549
27.3965
25.3623
23.726
22.4652
21.5614
21.0008
20.7747
20.8792
21.3158
22.0912
23.2172
24.7105
26.5922
28.8876
31.6254
34.8374
36.1643
32.3816
29.1104
26.3146
23.9606
22.0178
20.4588
19.2601
18.4025
17.8716
17.6579
17.7575
18.1718
18.9077
19.9778
21.3993
23.1945
25.3895
28.0144
31.1022
32.7644
29.109
25.9563
23.269
21.0127
19.1555
17.6691
16.5289
15.715
15.2121
15.0103
15.1054
15.4987
16.1977
17.2151
18.5692
20.2831
22.3843
24.9037
27.8756
29.8509
26.3119
23.2677
20.6803
18.5138
16.7357
15.3164
14.2306
13.4572
12.9805
12.79
12.881
13.2551
13.9197
14.8883
16.18
17.8188
19.8332
22.2556
25.1211
27.3912
23.9567
21.0102
18.5126
16.4274
14.7209
13.3626
12.3262
11.5899
11.1371
10.9569
11.0444
11.401
12.0345
12.9587
14.1937
15.7643
17.7002
20.0348
22.8045
25.3558
22.0127
19.1518
16.7333
14.7197
13.0764
11.7721
10.7795
10.0762
9.64487
9.47401
9.55846
9.89957
10.5053
11.3903
12.5748
14.0851
15.9517
18.2089
20.8944
23.7184
20.4526
17.6642
15.3129
13.3603
11.771
10.5128
9.55794
8.88295
8.47002
8.30721
8.38908
8.71693
9.29894
10.15
11.2915
12.7501
14.5574
16.7488
19.3628
22.4564
19.2528
16.523
14.2259
12.3228
10.7774
9.55688
8.63266
7.98081
7.58293
7.4267
7.50642
7.82336
8.38587
9.20928
10.3154
11.7319
13.4911
15.6293
18.1856
21.5515
18.3941
15.708
13.4516
11.5855
10.073
8.88089
7.97981
7.3454
6.95883
6.80748
6.88546
7.19399
7.7416
8.54396
9.62342
11.0082
12.7313
14.8297
17.343
20.9898
17.8621
15.204
12.9738
11.1317
9.64067
8.46696
7.58095
6.95787
6.57858
6.43023
6.50682
6.80959
7.3472
8.13562
9.19756
10.5617
12.2615
14.3343
16.8202
20.7626
17.6474
15.0012
12.7822
10.9505
9.46881
8.30318
7.42375
6.80555
6.42927
6.28194
6.35752
6.6573
7.19009
7.97204
9.02612
10.3812
12.0711
14.1332
16.6078
20.866
17.7459
15.0952
12.8722
11.037
9.55223
8.38403
7.50247
6.88253
6.50488
6.35654
6.43153
6.73124
7.26459
8.04783
9.10402
10.462
12.1556
14.2221
16.7017
21.3015
18.159
15.4875
13.2452
11.3925
9.89228
8.71082
7.81836
7.19002
6.80661
6.65529
6.73022
7.0329
7.57232
8.36474
9.43308
10.806
12.517
14.603
17.1039
22.0758
18.8939
16.1853
13.9087
12.0248
10.497
9.29173
8.37977
7.73653
7.34313
7.18699
7.26248
7.57124
8.12228
8.93169
10.0221
11.4217
13.1634
15.2837
17.8218
23.2007
19.9628
17.2015
14.8762
12.9479
11.3807
10.1417
9.20202
8.53774
8.13039
7.9678
8.04459
8.36254
8.93057
9.76448
10.8864
12.3239
14.1091
16.2778
18.8684
24.6928
21.3832
18.5545
16.1667
14.1817
12.5641
11.2819
10.307
9.61601
9.19115
9.02071
9.09961
9.42973
10.0198
10.8853
12.0475
13.5334
15.374
17.6043
20.2618
26.5734
23.1771
20.2673
17.8043
15.7511
14.0732
12.7393
11.7223
10.9996
10.5541
10.3746
10.4565
10.8015
11.4183
12.3216
13.5322
15.0759
16.9829
19.2869
22.0248
28.8675
25.371
22.3672
19.8176
17.6859
15.9386
14.5454
13.4803
12.7215
12.2528
12.0634
12.1489
12.5113
13.1588
14.1057
15.3717
16.9817
18.9649
21.3538
24.1841
31.6041
27.9947
24.8854
22.2387
20.0193
18.1946
16.7357
15.6173
14.8187
14.3244
14.1243
14.2143
14.5963
15.278
16.2732
17.6009
19.2847
21.3526
23.8363
26.7701
34.8149
31.0812
27.8562
25.1031
22.7878
20.8789
19.3485
18.1724
17.3309
16.8092
16.5978
16.6928
17.0961
17.8151
18.8628
20.2574
22.0215
24.1819
26.769
29.8163
36.4948
32.7003
29.4183
26.6126
24.2498
22.2992
20.7335
19.5293
18.6674
18.1333
17.9178
18.0169
18.432
19.1704
20.2443
21.6712
23.4732
25.6766
28.3111
31.4098
32.699
29.0465
25.8965
23.2119
20.9579
19.1028
17.618
16.479
15.6657
15.1628
14.9604
15.0543
15.446
16.1429
17.1579
18.5096
20.221
22.3196
24.8366
27.8063
29.4156
25.8952
22.8684
20.297
18.1451
16.3798
14.9713
13.8941
13.1269
12.6537
12.464
12.5532
12.9228
13.5804
14.5399
15.8205
17.4465
19.4467
21.8535
24.7024
26.6087
23.2093
20.2958
17.8287
15.7713
14.0892
12.7516
11.7319
11.0079
10.5626
10.385
10.47
10.8191
11.4403
12.348
13.5625
15.1091
17.018
19.3229
22.0607
24.2447
20.9542
18.1427
15.7701
13.7982
12.1918
10.919
9.95199
9.26758
8.84805
8.68162
8.76296
9.09348
9.68146
10.5419
11.6958
13.1701
14.9959
17.2084
19.8456
22.293
19.0979
16.3762
14.0868
12.1907
10.6515
9.43628
8.51622
7.86726
7.47087
7.31465
7.39288
7.70691
8.26524
9.08342
10.1835
11.5933
13.3454
15.4761
18.0247
20.7262
17.612
14.9667
12.7483
10.9169
9.43522
8.26951
7.38993
6.77161
6.39528
6.24797
6.32362
6.62346
7.15621
7.93794
8.99156
10.3459
12.0348
14.0957
16.5687
19.5209
16.472
13.8884
11.7276
9.94881
8.51417
7.38895
6.54257
5.94941
5.58958
5.44961
5.52312
5.81125
6.3229
7.07462
8.09007
9.39905
11.0363
13.0404
15.4524
18.6579
15.6576
13.1202
11.0025
9.26344
7.86427
6.7697
5.94849
5.37443
5.02708
4.89259
4.96433
5.24337
5.7388
6.46755
7.45394
8.72857
10.327
12.2886
14.655
18.1228
15.1537
12.646
10.5563
8.84297
7.46696
6.39247
5.58778
5.02621
4.68695
4.55585
4.62613
4.89885
5.38326
6.09666
7.06385
8.31601
9.8893
11.8235
14.1608
17.9063
14.9504
12.4553
10.3777
8.6756
7.30983
6.24427
5.44693
4.89086
4.555
4.42506
4.49418
4.76349
5.24242
5.94856
6.90701
8.14927
9.71179
11.6345
13.9598
18.0043
15.0432
12.5435
10.4617
8.75597
7.38712
6.31899
5.51953
4.96169
4.62439
4.49329
4.56162
4.83063
5.30991
6.01723
6.97782
8.22318
9.78969
11.7172
14.0478
18.4184
15.4339
12.9121
10.8098
9.08549
7.70015
6.61784
5.80668
5.23977
4.89614
4.76165
4.82967
5.10166
5.58735
6.30452
7.27826
8.5398
10.1251
12.0735
14.427
19.1557
16.1297
13.5687
11.43
9.67243
8.25743
7.14954
6.31727
5.73413
5.3795
5.23954
5.30792
5.58632
6.08452
6.82014
7.81788
9.10835
10.7268
12.712
15.1051
20.2285
17.1437
14.5271
12.3366
10.5317
9.07451
7.93016
7.06787
6.46177
6.09178
5.94456
6.01415
6.3024
6.81906
7.58138
8.61341
9.94492
11.6102
13.6472
16.0961
21.6543
18.4942
15.8066
13.55
11.6846
10.1735
8.98263
8.08216
7.44699
7.05781
6.90187
6.97361
7.27503
7.81569
8.6123
9.68808
11.0717
12.7965
14.8991
17.4188
23.4553
20.2045
17.4315
15.0955
13.1577
11.5821
10.3358
9.38998
8.72046
8.30882
8.143
8.21786
8.53546
9.10506
9.94271
11.0706
12.5164
14.312
16.4928
19.0973
25.6575
22.302
19.4305
17.0032
14.9824
13.3331
12.0236
11.0261
10.3178
9.88099
9.70441
9.78328
10.1197
10.7225
11.607
12.7943
14.3109
16.1873
18.4578
21.1594
28.2909
24.8179
21.8362
19.307
17.1937
15.4627
14.0833
13.0291
12.2782
11.8141
11.6261
11.7097
12.0671
12.7066
13.6429
14.8959
16.4907
18.4567
20.8268
23.6368
31.3884
27.7864
24.684
22.0436
19.8298
18.0101
16.5552
15.44
14.6435
14.1503
13.9503
14.0394
14.4195
15.0987
16.0907
17.4146
19.0941
21.1573
23.6358
26.564
33.4045
29.7251
26.55
23.8425
21.5679
19.6946
18.1943
17.0427
16.2197
15.7102
15.5045
15.5983
15.9933
16.697
17.7223
19.0875
20.8157
22.9341
25.4736
28.4682
29.7238
26.1909
23.1526
20.5707
18.4094
16.6357
15.2201
14.1368
13.3649
12.8882
12.6963
12.7846
13.1549
13.8149
14.7784
16.0647
17.6981
19.7073
22.1246
24.9854
26.5475
23.1513
20.241
17.777
15.7224
14.0428
12.7074
11.6892
10.966
10.5207
10.3423
10.4257
10.7726
11.3912
12.2959
13.5073
15.0509
16.957
19.2593
21.9946
23.8387
20.5682
17.7758
15.4209
13.4653
11.8733
10.6129
9.65567
8.97835
8.56288
8.39735
8.4764
8.80157
9.38138
10.2311
11.3724
12.8322
14.6421
16.8376
19.4568
21.563
18.4058
15.72
13.4641
11.5987
10.0868
8.89506
7.994
7.35908
6.9713
6.81798
6.89327
7.19861
7.74285
8.54202
9.6188
11.0017
12.7237
14.8219
17.3358
19.6886
16.631
14.0394
11.8711
10.0857
8.64524
7.51492
6.66423
6.0675
5.70481
5.56271
5.63487
5.9226
6.43497
7.18874
8.20769
9.52167
11.1654
13.1771
15.5977
18.1873
15.2144
12.7029
10.6096
8.89299
7.51393
6.4367
5.62965
5.06613
4.72535
4.59316
4.66279
4.93533
5.4201
6.13445
7.10323
8.3576
9.93369
11.8712
14.2122
17.0346
14.1301
11.6838
9.6515
7.991
6.66232
5.62873
4.85767
4.3216
3.99897
3.87503
3.94259
4.20258
4.66446
5.34617
6.27346
7.47874
8.99941
10.8764
13.1527
16.2106
13.3572
10.9596
8.97326
7.35519
6.06472
5.06437
4.32076
3.80566
3.49688
3.37916
3.44498
3.69517
4.13933
4.79587
5.69137
6.85928
8.33804
10.1695
12.3975
15.7002
12.8795
10.5134
8.5569
6.96655
5.7012
4.72279
3.99736
3.49611
3.19638
3.08255
3.14687
3.39012
3.82208
4.46161
5.33594
6.47927
7.93079
9.73292
11.93
15.4934
12.6867
10.3341
8.39049
6.81237
5.55827
4.58981
3.87266
3.37765
3.08181
2.96931
3.03231
3.27165
3.69734
4.32861
5.19316
6.32559
7.76544
9.55531
11.7397
15.5863
12.7741
10.4166
8.46864
6.88678
5.62958
4.6586
3.9394
3.44268
3.14535
3.03154
3.09346
3.33215
3.75787
4.39015
5.25687
6.39264
7.83685
9.63195
11.8222
15.9804
13.1435
10.7625
8.79287
7.1912
5.91639
4.93023
4.19848
3.69197
3.38771
3.27
3.33127
3.57285
4.00528
4.64817
5.52924
6.68268
8.14733
9.96508
12.1797
16.6831
13.8025
11.3801
9.37171
7.73445
6.42777
5.41399
4.65936
4.13511
3.81866
3.69468
3.75601
4.0043
4.45027
5.11336
6.02074
7.20581
8.70647
10.5637
12.8206
17.7074
14.765
12.2839
10.2204
8.53259
7.18049
6.12727
5.33996
4.79053
4.45708
4.32485
4.38721
4.64613
5.1123
5.80472
6.74969
7.97945
9.53072
11.4434
13.7596
19.0715
16.0502
13.4942
11.3607
9.60831
8.19835
7.09493
6.26612
5.6849
5.33027
5.18828
5.25283
5.52611
6.01861
6.74862
7.74131
9.02758
10.6427
12.6254
15.0165
20.7987
17.6826
15.0368
12.8194
10.9901
9.51123
8.34819
7.47027
6.85167
6.47249
6.31963
6.38753
6.6785
7.20262
7.97733
9.02652
10.3796
12.0704
14.1361
16.6165
22.916
19.6907
16.9418
14.6283
12.7111
11.1538
9.92318
8.98984
8.32935
7.92295
7.75843
7.83073
8.14215
8.70228
9.52758
10.6407
12.0694
13.846
16.0063
18.5888
25.4544
22.1069
19.243
16.8226
14.8082
13.1645
11.8596
10.8657
10.1598
9.72408
9.54734
9.62488
9.95895
10.5586
11.4393
12.6223
14.1341
16.0053
18.2703
20.966
28.4479
24.9667
21.9772
19.4408
17.321
15.5841
14.1996
13.1411
12.3868
11.9202
11.7308
11.8142
12.1727
12.8146
13.7545
15.0125
16.6136
18.5868
20.965
23.7839
30.7826
27.2065
24.128
21.5091
19.3145
17.5115
16.0708
14.9671
14.1795
13.6924
13.4955
13.5843
13.9607
14.6325
15.6132
16.9221
18.5831
20.6245
23.0781
25.979
27.2053
23.7803
20.843
18.3543
16.2774
14.5781
13.2257
12.1936
11.4596
11.0069
10.8245
10.9076
11.2579
11.8837
12.7996
14.0258
15.5879
17.5156
19.8425
22.605
24.1255
20.8418
18.0371
15.671
13.7053
12.1045
10.8364
9.87273
9.19019
8.77076
8.60258
8.68041
9.00595
9.58791
10.4417
11.5891
13.0569
14.8767
17.0838
19.716
21.5055
18.352
15.6699
13.4176
11.5556
10.0469
8.8579
7.95889
7.32512
6.93746
6.78313
6.85635
7.15872
7.69939
8.49472
9.5677
10.947
12.6659
14.7612
17.2725
19.3098
16.2739
13.7031
11.5545
9.7874
8.36334
7.24724
6.40807
5.81971
5.46184
5.32077
5.3901
5.67128
6.17381
6.91496
7.91912
9.21665
10.8426
12.8357
15.2369
17.5057
14.5736
12.1012
10.0448
8.36232
7.01405
5.96354
5.17838
4.63121
4.30058
4.17188
4.23807
4.50039
4.96859
5.66079
6.60275
7.82659
9.36922
11.2709
13.5743
16.064
13.2203
10.8321
8.85484
7.24528
5.9626
4.96904
4.23097
3.71986
3.41323
3.29561
3.35937
3.60545
4.04377
4.6932
5.5808
6.74041
8.21073
10.0337
12.2531
14.9593
12.1872
9.86758
7.95493
6.40523
5.17659
4.23013
3.53111
3.04999
2.7634
2.65512
2.71698
2.94964
3.36311
3.97687
4.8192
5.92553
7.33622
9.09462
11.2458
14.1709
11.4523
9.18415
7.32031
5.81605
4.62863
3.71825
3.04925
2.5912
2.31999
2.21882
2.27909
2.50123
2.89533
3.48138
4.28875
5.35425
6.71962
8.42935
10.5293
13.6828
10.9987
8.76387
6.93184
5.45741
4.29726
3.41092
2.76199
2.31935
2.05831
1.96162
2.02041
2.23498
2.61554
3.18264
3.9665
5.00501
6.34084
8.01918
10.0863
13.485
10.8154
8.59486
6.7767
5.31557
4.16783
3.29262
2.65306
2.21756
1.96102
1.86592
1.92323
2.13329
2.50659
3.0642
3.83703
4.86352
6.18672
7.85201
9.90581
13.573
10.8977
8.67184
6.84909
5.3841
4.23326
3.35564
2.71422
2.27715
2.01915
1.92258
1.97846
2.18736
2.56019
3.11853
3.89358
4.92374
6.25183
7.92293
9.98317
13.9485
11.2471
8.99651
7.15061
5.66443
4.49473
3.60089
2.94604
2.49847
2.23291
2.13185
2.18657
2.3981
2.77787
3.3477
4.13858
5.18825
6.53875
8.2344
10.3207
14.6193
11.872
9.57758
7.69038
6.16605
4.962
4.03826
3.35854
2.89157
2.61248
2.50416
2.55843
2.77692
3.17142
3.7636
4.58365
5.66817
7.05791
8.79612
10.9275
15.5991
12.787
10.4305
8.48476
6.90624
5.65321
4.68665
3.97123
3.47653
3.17846
3.06067
3.1157
3.34571
3.76256
4.38732
5.24895
6.38244
7.827
9.62459
11.8189
16.907
14.0122
11.5768
9.55676
7.90939
6.59414
5.57318
4.81245
4.28277
3.9612
3.8324
3.88968
4.13552
4.58157
5.2479
6.16192
7.35685
8.87017
10.7423
13.0158
18.567
15.5733
13.0437
10.935
9.2059
7.81692
6.73171
5.91768
5.34717
4.99863
4.85785
4.91883
5.18421
5.66509
6.38038
7.35584
8.62281
10.2169
12.1771
14.5445
20.6074
17.5
14.8625
12.6529
10.8309
9.35852
8.20098
7.32733
6.71152
6.33347
6.1801
6.246
6.5338
7.05391
7.82401
8.8682
10.216
11.9012
13.961
16.4352
23.0601
19.8259
17.0686
14.7472
12.8229
11.2592
10.0229
9.08475
8.42029
8.0109
7.84452
7.91626
8.22861
8.79128
9.62072
10.7395
12.1752
13.9601
16.1295
18.7218
25.9599
22.5873
19.6998
17.2575
15.2231
13.5616
12.2414
11.2349
10.5193
10.0772
9.89751
9.97571
10.3142
10.9219
11.8142
13.0121
14.5417
16.4334
18.7209
21.4412
28.5995
25.1142
22.1205
19.5799
17.456
15.7152
14.3275
13.2664
12.5105
12.0432
11.854
11.9382
12.2977
12.9407
13.8816
15.1402
16.7416
18.7149
21.093
23.9116
25.113
21.7829
18.9348
16.5287
14.5267
12.8937
11.598
10.6117
9.91176
9.48053
9.30641
9.38443
9.71645
10.3112
11.1841
12.3564
13.8548
15.7101
17.957
20.633
22.1181
18.9337
16.2226
13.9436
12.0574
10.5272
9.31964
8.40528
7.75951
7.36337
7.20427
7.27666
7.58237
8.13071
8.93812
10.0275
11.4272
13.1701
15.2926
17.8338
19.5764
16.5264
13.9425
11.782
10.0041
8.57066
7.44645
6.60044
6.00644
5.64413
5.49981
5.56726
5.84822
6.3525
7.09769
8.10831
9.41471
11.0517
13.0577
15.4734
17.4514
14.5234
12.0552
10.0031
8.32486
6.98067
5.93379
5.15152
4.60613
4.27586
4.14591
4.20928
4.46748
4.93076
5.61784
6.55499
7.77461
9.3137
11.2125
13.5134
15.7097
12.8894
10.5241
8.56865
6.9797
5.71592
4.73901
4.01467
3.51371
3.21304
3.09673
3.15697
3.39489
3.82103
4.45517
5.32533
6.4661
7.91669
9.71928
11.9179
14.321
11.5928
9.3156
7.44353
5.93193
4.73812
3.82232
3.1488
2.68699
2.41265
2.30878
2.36677
2.58731
2.98102
3.56855
4.37962
5.45109
6.82438
8.54355
10.654
13.259
10.6056
8.40037
6.59667
5.14884
4.01298
3.14801
2.51687
2.08785
1.83564
1.74239
1.79877
2.00505
2.37176
2.92016
3.68158
4.69506
6.00418
7.65468
9.69315
12.5022
9.90479
7.75378
6.0019
4.60269
3.5113
2.68552
2.08718
1.68355
1.44846
1.36335
1.41842
1.61356
1.95915
2.47692
3.19963
4.16833
5.42842
7.02694
9.01134
12.0341
9.47273
7.35686
5.63884
4.27173
3.20999
2.41058
1.83443
1.44794
1.22424
1.1443
1.19802
1.38504
1.71566
2.21215
2.90858
3.84751
5.07556
6.64057
8.59041
11.844
9.29783
7.197
5.4938
4.14109
3.09305
2.30614
1.74066
1.36237
1.14387
1.06584
1.11798
1.29985
1.62197
2.10745
2.79136
3.71704
4.93153
6.48277
8.41865
11.9274
9.37505
7.26862
5.56051
4.20376
3.15261
2.36349
1.79646
1.41689
1.19707
1.11749
1.16778
1.34772
1.66856
2.15433
2.84058
3.7705
4.99062
6.54841
8.49139
12.2861
9.70626
7.57354
5.84069
4.4612
3.38978
2.58328
2.00199
1.61129
1.38336
1.29864
1.34701
1.52899
1.85684
2.35517
3.05918
4.01095
5.2558
6.84025
8.81116
12.9283
10.3002
8.12107
6.34415
4.92365
3.81507
2.97612
2.36778
1.95591
1.71298
1.61977
1.66689
1.8559
2.19991
2.72336
3.46019
4.45067
5.73843
7.3687
9.38751
13.8683
11.1722
8.92763
7.08848
5.60984
4.44828
3.56265
2.91512
2.47256
2.20833
2.10412
2.15157
2.35317
2.72231
3.28252
4.06583
5.11025
6.45747
8.15124
10.2365
15.1261
12.3437
10.0161
8.09821
6.54606
5.31747
4.3727
3.67545
3.19415
2.90364
2.78694
2.83678
3.05617
3.45813
4.06481
4.90602
6.01741
7.43855
9.21156
11.3802
16.7265
13.8411
11.4149
9.40368
7.76472
6.45725
5.44314
4.68788
4.1618
3.84155
3.71166
3.76578
4.00704
4.4477
5.10829
6.01645
7.20545
8.71274
10.5787
12.8457
18.6989
15.6955
13.1569
11.0398
9.30286
7.90687
6.81546
5.99604
5.42095
5.06872
4.92532
4.98512
5.25112
5.73465
6.45466
7.4367
8.71184
10.3154
12.286
14.6644
21.076
17.9415
15.2784
13.0448
11.2007
9.70852
8.5337
7.64563
7.01862
6.63293
6.47582
6.5422
6.83486
7.36419
8.14765
9.20891
10.577
12.2851
14.3701
16.8713
23.8936
20.6165
17.8186
15.4595
13.5007
11.9062
10.6433
9.68325
9.00222
8.58203
8.41101
8.48452
8.80511
9.38231
10.2322
11.3768
12.8432
14.6628
16.8705
19.5041
26.8289
23.4206
20.4991
18.0253
15.9619
14.2745
12.9323
11.9079
11.1792
10.7289
10.5461
10.626
10.9707
11.5887
12.4951
13.7105
15.2607
17.1759
19.4897
22.2385
23.4194
20.1702
17.3982
15.0628
13.1253
11.5495
10.3028
9.35616
8.68571
8.27299
8.10586
8.17912
8.49482
9.06225
9.89757
11.0231
12.4666
14.2599
16.4386
19.0409
20.4968
17.3971
14.7663
12.5623
10.7447
9.27592
8.12118
7.2499
6.63631
6.26044
6.10901
6.17615
6.46389
6.98221
7.74862
8.78725
10.1278
11.8044
13.8544
16.318
18.0219
15.0607
12.5612
10.4801
8.77545
7.40777
6.3406
5.54142
4.98264
4.64266
4.50688
4.56863
4.82981
5.30109
6.00139
6.95686
8.19947
9.76556
11.6947
14.0285
15.9575
13.1221
10.7427
8.77445
7.17409
5.90039
4.91504
4.18363
3.67678
3.37121
3.25091
3.30825
3.54484
3.97189
4.60982
5.48695
6.63775
8.10099
9.9183
12.1332
14.2692
11.5454
9.27293
7.40585
5.89946
4.71091
3.80009
3.13076
2.67181
2.3984
2.29311
2.34724
2.56186
2.94853
3.52901
4.33397
5.40059
6.77025
8.48671
10.5951
12.926
10.2977
8.11732
6.33782
4.91326
3.79924